# vtk DataFile Version 2.0
output110.vtk
ASCII 
DATASET STRUCTURED_GRID
DIMENSIONS 120 200 1
POINTS 24000 float
0 0 1
0 1 1
0 2 1
0 3 1
0 4 1
0 5 1
0 6 1
0 7 1
0 8 1
0 9 1
0 10 1
0 11 1
0 12 1
0 13 1
0 14 1
0 15 1
0 16 1
0 17 1
0 18 1
0 19 1
0 20 1
0 21 1
0 22 1
0 23 1
0 24 1
0 25 1
0 26 1
0 27 1
0 28 1
0 29 1
0 30 1
0 31 1
0 32 1
0 33 1
0 34 1
0 35 1
0 36 1
0 37 1
0 38 1
0 39 1
0 40 1
0 41 1
0 42 1
0 43 1
0 44 1
0 45 1
0 46 1
0 47 1
0 48 1
0 49 1
0 50 1
0 51 1
0 52 1
0 53 1
0 54 1
0 55 1
0 56 1
0 57 1
0 58 1
0 59 1
0 60 1
0 61 1
0 62 1
0 63 1
0 64 1
0 65 1
0 66 1
0 67 1
0 68 1
0 69 1
0 70 1
0 71 1
0 72 1
0 73 1
0 74 1
0 75 1
0 76 1
0 77 1
0 78 1
0 79 1
0 80 1
0 81 1
0 82 1
0 83 1
0 84 1
0 85 1
0 86 1
0 87 1
0 88 1
0 89 1
0 90 1
0 91 1
0 92 1
0 93 1
0 94 1
0 95 1
0 96 1
0 97 1
0 98 1
0 99 1
0 100 1
0 101 1
0 102 1
0 103 1
0 104 1
0 105 1
0 106 1
0 107 1
0 108 1
0 109 1
0 110 1
0 111 1
0 112 1
0 113 1
0 114 1
0 115 1
0 116 1
0 117 1
0 118 1
0 119 1
1 0 1
1 1 1
1 2 1
1 3 1
1 4 1
1 5 1
1 6 1
1 7 1
1 8 1
1 9 1
1 10 1
1 11 1
1 12 1
1 13 1
1 14 1
1 15 1
1 16 1
1 17 1
1 18 1
1 19 1
1 20 1
1 21 1
1 22 1
1 23 1
1 24 1
1 25 1
1 26 1
1 27 1
1 28 1
1 29 1
1 30 1
1 31 1
1 32 1
1 33 1
1 34 1
1 35 1
1 36 1
1 37 1
1 38 1
1 39 1
1 40 1
1 41 1
1 42 1
1 43 1
1 44 1
1 45 1
1 46 1
1 47 1
1 48 1
1 49 1
1 50 1
1 51 1
1 52 1
1 53 1
1 54 1
1 55 1
1 56 1
1 57 1
1 58 1
1 59 1
1 60 1
1 61 1
1 62 1
1 63 1
1 64 1
1 65 1
1 66 1
1 67 1
1 68 1
1 69 1
1 70 1
1 71 1
1 72 1
1 73 1
1 74 1
1 75 1
1 76 1
1 77 1
1 78 1
1 79 1
1 80 1
1 81 1
1 82 1
1 83 1
1 84 1
1 85 1
1 86 1
1 87 1
1 88 1
1 89 1
1 90 1
1 91 1
1 92 1
1 93 1
1 94 1
1 95 1
1 96 1
1 97 1
1 98 1
1 99 1
1 100 1
1 101 1
1 102 1
1 103 1
1 104 1
1 105 1
1 106 1
1 107 1
1 108 1
1 109 1
1 110 1
1 111 1
1 112 1
1 113 1
1 114 1
1 115 1
1 116 1
1 117 1
1 118 1
1 119 1
2 0 1
2 1 1
2 2 1
2 3 1
2 4 1
2 5 1
2 6 1
2 7 1
2 8 1
2 9 1
2 10 1
2 11 1
2 12 1
2 13 1
2 14 1
2 15 1
2 16 1
2 17 1
2 18 1
2 19 1
2 20 1
2 21 1
2 22 1
2 23 1
2 24 1
2 25 1
2 26 1
2 27 1
2 28 1
2 29 1
2 30 1
2 31 1
2 32 1
2 33 1
2 34 1
2 35 1
2 36 1
2 37 1
2 38 1
2 39 1
2 40 1
2 41 1
2 42 1
2 43 1
2 44 1
2 45 1
2 46 1
2 47 1
2 48 1
2 49 1
2 50 1
2 51 1
2 52 1
2 53 1
2 54 1
2 55 1
2 56 1
2 57 1
2 58 1
2 59 1
2 60 1
2 61 1
2 62 1
2 63 1
2 64 1
2 65 1
2 66 1
2 67 1
2 68 1
2 69 1
2 70 1
2 71 1
2 72 1
2 73 1
2 74 1
2 75 1
2 76 1
2 77 1
2 78 1
2 79 1
2 80 1
2 81 1
2 82 1
2 83 1
2 84 1
2 85 1
2 86 1
2 87 1
2 88 1
2 89 1
2 90 1
2 91 1
2 92 1
2 93 1
2 94 1
2 95 1
2 96 1
2 97 1
2 98 1
2 99 1
2 100 1
2 101 1
2 102 1
2 103 1
2 104 1
2 105 1
2 106 1
2 107 1
2 108 1
2 109 1
2 110 1
2 111 1
2 112 1
2 113 1
2 114 1
2 115 1
2 116 1
2 117 1
2 118 1
2 119 1
3 0 1
3 1 1
3 2 1
3 3 1
3 4 1
3 5 1
3 6 1
3 7 1
3 8 1
3 9 1
3 10 1
3 11 1
3 12 1
3 13 1
3 14 1
3 15 1
3 16 1
3 17 1
3 18 1
3 19 1
3 20 1
3 21 1
3 22 1
3 23 1
3 24 1
3 25 1
3 26 1
3 27 1
3 28 1
3 29 1
3 30 1
3 31 1
3 32 1
3 33 1
3 34 1
3 35 1
3 36 1
3 37 1
3 38 1
3 39 1
3 40 1
3 41 1
3 42 1
3 43 1
3 44 1
3 45 1
3 46 1
3 47 1
3 48 1
3 49 1
3 50 1
3 51 1
3 52 1
3 53 1
3 54 1
3 55 1
3 56 1
3 57 1
3 58 1
3 59 1
3 60 1
3 61 1
3 62 1
3 63 1
3 64 1
3 65 1
3 66 1
3 67 1
3 68 1
3 69 1
3 70 1
3 71 1
3 72 1
3 73 1
3 74 1
3 75 1
3 76 1
3 77 1
3 78 1
3 79 1
3 80 1
3 81 1
3 82 1
3 83 1
3 84 1
3 85 1
3 86 1
3 87 1
3 88 1
3 89 1
3 90 1
3 91 1
3 92 1
3 93 1
3 94 1
3 95 1
3 96 1
3 97 1
3 98 1
3 99 1
3 100 1
3 101 1
3 102 1
3 103 1
3 104 1
3 105 1
3 106 1
3 107 1
3 108 1
3 109 1
3 110 1
3 111 1
3 112 1
3 113 1
3 114 1
3 115 1
3 116 1
3 117 1
3 118 1
3 119 1
4 0 1
4 1 1
4 2 1
4 3 1
4 4 1
4 5 1
4 6 1
4 7 1
4 8 1
4 9 1
4 10 1
4 11 1
4 12 1
4 13 1
4 14 1
4 15 1
4 16 1
4 17 1
4 18 1
4 19 1
4 20 1
4 21 1
4 22 1
4 23 1
4 24 1
4 25 1
4 26 1
4 27 1
4 28 1
4 29 1
4 30 1
4 31 1
4 32 1
4 33 1
4 34 1
4 35 1
4 36 1
4 37 1
4 38 1
4 39 1
4 40 1
4 41 1
4 42 1
4 43 1
4 44 1
4 45 1
4 46 1
4 47 1
4 48 1
4 49 1
4 50 1
4 51 1
4 52 1
4 53 1
4 54 1
4 55 1
4 56 1
4 57 1
4 58 1
4 59 1
4 60 1
4 61 1
4 62 1
4 63 1
4 64 1
4 65 1
4 66 1
4 67 1
4 68 1
4 69 1
4 70 1
4 71 1
4 72 1
4 73 1
4 74 1
4 75 1
4 76 1
4 77 1
4 78 1
4 79 1
4 80 1
4 81 1
4 82 1
4 83 1
4 84 1
4 85 1
4 86 1
4 87 1
4 88 1
4 89 1
4 90 1
4 91 1
4 92 1
4 93 1
4 94 1
4 95 1
4 96 1
4 97 1
4 98 1
4 99 1
4 100 1
4 101 1
4 102 1
4 103 1
4 104 1
4 105 1
4 106 1
4 107 1
4 108 1
4 109 1
4 110 1
4 111 1
4 112 1
4 113 1
4 114 1
4 115 1
4 116 1
4 117 1
4 118 1
4 119 1
5 0 1
5 1 1
5 2 1
5 3 1
5 4 1
5 5 1
5 6 1
5 7 1
5 8 1
5 9 1
5 10 1
5 11 1
5 12 1
5 13 1
5 14 1
5 15 1
5 16 1
5 17 1
5 18 1
5 19 1
5 20 1
5 21 1
5 22 1
5 23 1
5 24 1
5 25 1
5 26 1
5 27 1
5 28 1
5 29 1
5 30 1
5 31 1
5 32 1
5 33 1
5 34 1
5 35 1
5 36 1
5 37 1
5 38 1
5 39 1
5 40 1
5 41 1
5 42 1
5 43 1
5 44 1
5 45 1
5 46 1
5 47 1
5 48 1
5 49 1
5 50 1
5 51 1
5 52 1
5 53 1
5 54 1
5 55 1
5 56 1
5 57 1
5 58 1
5 59 1
5 60 1
5 61 1
5 62 1
5 63 1
5 64 1
5 65 1
5 66 1
5 67 1
5 68 1
5 69 1
5 70 1
5 71 1
5 72 1
5 73 1
5 74 1
5 75 1
5 76 1
5 77 1
5 78 1
5 79 1
5 80 1
5 81 1
5 82 1
5 83 1
5 84 1
5 85 1
5 86 1
5 87 1
5 88 1
5 89 1
5 90 1
5 91 1
5 92 1
5 93 1
5 94 1
5 95 1
5 96 1
5 97 1
5 98 1
5 99 1
5 100 1
5 101 1
5 102 1
5 103 1
5 104 1
5 105 1
5 106 1
5 107 1
5 108 1
5 109 1
5 110 1
5 111 1
5 112 1
5 113 1
5 114 1
5 115 1
5 116 1
5 117 1
5 118 1
5 119 1
6 0 1
6 1 1
6 2 1
6 3 1
6 4 1
6 5 1
6 6 1
6 7 1
6 8 1
6 9 1
6 10 1
6 11 1
6 12 1
6 13 1
6 14 1
6 15 1
6 16 1
6 17 1
6 18 1
6 19 1
6 20 1
6 21 1
6 22 1
6 23 1
6 24 1
6 25 1
6 26 1
6 27 1
6 28 1
6 29 1
6 30 1
6 31 1
6 32 1
6 33 1
6 34 1
6 35 1
6 36 1
6 37 1
6 38 1
6 39 1
6 40 1
6 41 1
6 42 1
6 43 1
6 44 1
6 45 1
6 46 1
6 47 1
6 48 1
6 49 1
6 50 1
6 51 1
6 52 1
6 53 1
6 54 1
6 55 1
6 56 1
6 57 1
6 58 1
6 59 1
6 60 1
6 61 1
6 62 1
6 63 1
6 64 1
6 65 1
6 66 1
6 67 1
6 68 1
6 69 1
6 70 1
6 71 1
6 72 1
6 73 1
6 74 1
6 75 1
6 76 1
6 77 1
6 78 1
6 79 1
6 80 1
6 81 1
6 82 1
6 83 1
6 84 1
6 85 1
6 86 1
6 87 1
6 88 1
6 89 1
6 90 1
6 91 1
6 92 1
6 93 1
6 94 1
6 95 1
6 96 1
6 97 1
6 98 1
6 99 1
6 100 1
6 101 1
6 102 1
6 103 1
6 104 1
6 105 1
6 106 1
6 107 1
6 108 1
6 109 1
6 110 1
6 111 1
6 112 1
6 113 1
6 114 1
6 115 1
6 116 1
6 117 1
6 118 1
6 119 1
7 0 1
7 1 1
7 2 1
7 3 1
7 4 1
7 5 1
7 6 1
7 7 1
7 8 1
7 9 1
7 10 1
7 11 1
7 12 1
7 13 1
7 14 1
7 15 1
7 16 1
7 17 1
7 18 1
7 19 1
7 20 1
7 21 1
7 22 1
7 23 1
7 24 1
7 25 1
7 26 1
7 27 1
7 28 1
7 29 1
7 30 1
7 31 1
7 32 1
7 33 1
7 34 1
7 35 1
7 36 1
7 37 1
7 38 1
7 39 1
7 40 1
7 41 1
7 42 1
7 43 1
7 44 1
7 45 1
7 46 1
7 47 1
7 48 1
7 49 1
7 50 1
7 51 1
7 52 1
7 53 1
7 54 1
7 55 1
7 56 1
7 57 1
7 58 1
7 59 1
7 60 1
7 61 1
7 62 1
7 63 1
7 64 1
7 65 1
7 66 1
7 67 1
7 68 1
7 69 1
7 70 1
7 71 1
7 72 1
7 73 1
7 74 1
7 75 1
7 76 1
7 77 1
7 78 1
7 79 1
7 80 1
7 81 1
7 82 1
7 83 1
7 84 1
7 85 1
7 86 1
7 87 1
7 88 1
7 89 1
7 90 1
7 91 1
7 92 1
7 93 1
7 94 1
7 95 1
7 96 1
7 97 1
7 98 1
7 99 1
7 100 1
7 101 1
7 102 1
7 103 1
7 104 1
7 105 1
7 106 1
7 107 1
7 108 1
7 109 1
7 110 1
7 111 1
7 112 1
7 113 1
7 114 1
7 115 1
7 116 1
7 117 1
7 118 1
7 119 1
8 0 1
8 1 1
8 2 1
8 3 1
8 4 1
8 5 1
8 6 1
8 7 1
8 8 1
8 9 1
8 10 1
8 11 1
8 12 1
8 13 1
8 14 1
8 15 1
8 16 1
8 17 1
8 18 1
8 19 1
8 20 1
8 21 1
8 22 1
8 23 1
8 24 1
8 25 1
8 26 1
8 27 1
8 28 1
8 29 1
8 30 1
8 31 1
8 32 1
8 33 1
8 34 1
8 35 1
8 36 1
8 37 1
8 38 1
8 39 1
8 40 1
8 41 1
8 42 1
8 43 1
8 44 1
8 45 1
8 46 1
8 47 1
8 48 1
8 49 1
8 50 1
8 51 1
8 52 1
8 53 1
8 54 1
8 55 1
8 56 1
8 57 1
8 58 1
8 59 1
8 60 1
8 61 1
8 62 1
8 63 1
8 64 1
8 65 1
8 66 1
8 67 1
8 68 1
8 69 1
8 70 1
8 71 1
8 72 1
8 73 1
8 74 1
8 75 1
8 76 1
8 77 1
8 78 1
8 79 1
8 80 1
8 81 1
8 82 1
8 83 1
8 84 1
8 85 1
8 86 1
8 87 1
8 88 1
8 89 1
8 90 1
8 91 1
8 92 1
8 93 1
8 94 1
8 95 1
8 96 1
8 97 1
8 98 1
8 99 1
8 100 1
8 101 1
8 102 1
8 103 1
8 104 1
8 105 1
8 106 1
8 107 1
8 108 1
8 109 1
8 110 1
8 111 1
8 112 1
8 113 1
8 114 1
8 115 1
8 116 1
8 117 1
8 118 1
8 119 1
9 0 1
9 1 1
9 2 1
9 3 1
9 4 1
9 5 1
9 6 1
9 7 1
9 8 1
9 9 1
9 10 1
9 11 1
9 12 1
9 13 1
9 14 1
9 15 1
9 16 1
9 17 1
9 18 1
9 19 1
9 20 1
9 21 1
9 22 1
9 23 1
9 24 1
9 25 1
9 26 1
9 27 1
9 28 1
9 29 1
9 30 1
9 31 1
9 32 1
9 33 1
9 34 1
9 35 1
9 36 1
9 37 1
9 38 1
9 39 1
9 40 1
9 41 1
9 42 1
9 43 1
9 44 1
9 45 1
9 46 1
9 47 1
9 48 1
9 49 1
9 50 1
9 51 1
9 52 1
9 53 1
9 54 1
9 55 1
9 56 1
9 57 1
9 58 1
9 59 1
9 60 1
9 61 1
9 62 1
9 63 1
9 64 1
9 65 1
9 66 1
9 67 1
9 68 1
9 69 1
9 70 1
9 71 1
9 72 1
9 73 1
9 74 1
9 75 1
9 76 1
9 77 1
9 78 1
9 79 1
9 80 1
9 81 1
9 82 1
9 83 1
9 84 1
9 85 1
9 86 1
9 87 1
9 88 1
9 89 1
9 90 1
9 91 1
9 92 1
9 93 1
9 94 1
9 95 1
9 96 1
9 97 1
9 98 1
9 99 1
9 100 1
9 101 1
9 102 1
9 103 1
9 104 1
9 105 1
9 106 1
9 107 1
9 108 1
9 109 1
9 110 1
9 111 1
9 112 1
9 113 1
9 114 1
9 115 1
9 116 1
9 117 1
9 118 1
9 119 1
10 0 1
10 1 1
10 2 1
10 3 1
10 4 1
10 5 1
10 6 1
10 7 1
10 8 1
10 9 1
10 10 1
10 11 1
10 12 1
10 13 1
10 14 1
10 15 1
10 16 1
10 17 1
10 18 1
10 19 1
10 20 1
10 21 1
10 22 1
10 23 1
10 24 1
10 25 1
10 26 1
10 27 1
10 28 1
10 29 1
10 30 1
10 31 1
10 32 1
10 33 1
10 34 1
10 35 1
10 36 1
10 37 1
10 38 1
10 39 1
10 40 1
10 41 1
10 42 1
10 43 1
10 44 1
10 45 1
10 46 1
10 47 1
10 48 1
10 49 1
10 50 1
10 51 1
10 52 1
10 53 1
10 54 1
10 55 1
10 56 1
10 57 1
10 58 1
10 59 1
10 60 1
10 61 1
10 62 1
10 63 1
10 64 1
10 65 1
10 66 1
10 67 1
10 68 1
10 69 1
10 70 1
10 71 1
10 72 1
10 73 1
10 74 1
10 75 1
10 76 1
10 77 1
10 78 1
10 79 1
10 80 1
10 81 1
10 82 1
10 83 1
10 84 1
10 85 1
10 86 1
10 87 1
10 88 1
10 89 1
10 90 1
10 91 1
10 92 1
10 93 1
10 94 1
10 95 1
10 96 1
10 97 1
10 98 1
10 99 1
10 100 1
10 101 1
10 102 1
10 103 1
10 104 1
10 105 1
10 106 1
10 107 1
10 108 1
10 109 1
10 110 1
10 111 1
10 112 1
10 113 1
10 114 1
10 115 1
10 116 1
10 117 1
10 118 1
10 119 1
11 0 1
11 1 1
11 2 1
11 3 1
11 4 1
11 5 1
11 6 1
11 7 1
11 8 1
11 9 1
11 10 1
11 11 1
11 12 1
11 13 1
11 14 1
11 15 1
11 16 1
11 17 1
11 18 1
11 19 1
11 20 1
11 21 1
11 22 1
11 23 1
11 24 1
11 25 1
11 26 1
11 27 1
11 28 1
11 29 1
11 30 1
11 31 1
11 32 1
11 33 1
11 34 1
11 35 1
11 36 1
11 37 1
11 38 1
11 39 1
11 40 1
11 41 1
11 42 1
11 43 1
11 44 1
11 45 1
11 46 1
11 47 1
11 48 1
11 49 1
11 50 1
11 51 1
11 52 1
[...]
POINT_DATA 24000
SCALARS CON float 1
LOOKUP_TABLE default
1	1	1	1	1	1	1	1	1	1	1	1	1	1	1	1	1	1	1	1	1	1	1	1	1	1	1	1	0.915001	0.749661	0.70729	0.685997	0.661324	0.638616	0.620302	0.578571	0.493025	0.357971	0.346416	0.399995	0.483233	0.627346	0.729365	0.69653	0.548956	0.557665	0.567505	0.629175	0.63819	0.555755	0.471496	0.449008	0.465311	0.507492	0.607211	0.667006	0.690963	0.646478	0.551114	0.486392	0.49773	0.483826	0.487688	0.506975	0.50927	0.477013	0.517774	0.55953	0.60116	0.622021	0.607395	0.562473	0.517982	0.49406	0.5445	0.62525	0.664882	0.570209	0.638029	0.527332	0.404894	0.349427	0.411707	0.602876	0.850658	1	1	1	1	1	1	1	1	1	1	1	1	1	1	1	1	1	1	1	1	1	1	1	1	1	1	1	1	1	1	1	1	1	1	1	1	1	1	1	1	1	1	1	1	1	1	1	1	1	1	1	1	1	1	1	1	1	1	1	1	1	1	1	1	1	0.98063	0.96314	0.953535	0.942333	0.922741	0.892173	0.783917	0.486089	0.544942	0.527394	0.58261	0.654281	0.710964	0.584073	0.573891	0.56518	0.557378	0.65145	0.564283	0.458244	0.385026	0.33998	0.383096	0.464533	0.541033	0.587666	0.6394	0.558158	0.425015	0.357403	0.313712	0.297078	0.306817	0.361471	0.436638	0.521285	0.586909	0.68515	0.74195	0.738514	0.652599	0.511243	0.39114	0.367447	0.41405	0.524034	0.613552	0.549316	0.628259	0.52179	0.402091	0.3481	0.411164	0.60275	0.85077	1	1	1	1	1	1	1	1	1	1	1	1	1	1	1	1	1	1	1	1	1	1	1	1	1	1	1	1	1	1	1	1	1	1	1	1	1	1	1	1	1	1	1	1	1	1	1	1	1	1	1	1	1	1	1	1	1	1	1	1	1	1	1	1	1	1	1	1	1	1	1	0.915248	0.763764	0.680106	0.655429	0.659976	0.764599	0.881582	0.808577	0.793	0.776618	0.756836	0.804256	0.699022	0.569588	0.46899	0.368011	0.400847	0.473869	0.546287	0.586722	0.643223	0.540407	0.401398	0.320873	0.256284	0.230291	0.244923	0.331796	0.468003	0.641031	0.828391	0.912715	0.901069	0.947008	0.812205	0.630531	0.443354	0.412438	0.465563	0.609866	0.744582	0.805649	0.808049	0.66602	0.548128	0.458538	0.46847	0.637976	0.871435	1	1	1	1	1	1	1	1	1	1	1	1	1	1	1	1	1	1	1	1	1	1	1	1	1	1	1	1	1	1	1	1	1	1	1	1	1	1	1	1	1	1	1	1	1	1	1	1	1	1	1	1	1	1	1	1	1	1	1	1	1	1	1	1	1	1	1	1	1	0.97571	0.925715	0.830549	0.714778	0.71367	0.778122	0.849247	0.970675	1	1	1	1	0.990568	0.991041	0.908506	0.775967	0.646788	0.494615	0.482391	0.536821	0.586743	0.617452	0.656875	0.56993	0.439397	0.377327	0.310662	0.270971	0.285417	0.330445	0.528371	0.744902	0.938548	1	1	1	0.924987	0.731226	0.521965	0.44581	0.602741	0.778542	0.933303	1	1	0.904923	0.762073	0.65628	0.600212	0.646678	0.798293	0.955361	0.999553	1	1	1	1	1	1	1	1	1	1	1	1	1	1	1	1	1	1	1	1	1	1	1	1	1	1	1	1	1	1	1	1	1	1	1	1	1	1	1	1	1	1	1	1	1	1	1	1	1	1	1	1	1	1	1	1	1	1	1	1	1	1	1	1	1	1	1	0.985258	0.808834	0.612043	0.532963	0.723857	0.928367	1	1	1	1	1	1	1	1	1	0.915175	0.806275	0.702539	0.635097	0.610884	0.620681	0.64053	0.672468	0.636818	0.558648	0.534584	0.482962	0.43223	0.402719	0.448152	0.564903	0.773006	0.971938	1	1	1	0.943431	0.763408	0.578148	0.539537	0.671581	0.881859	1	1	1	1	0.976069	0.874743	0.694333	0.504395	0.635683	0.840139	1	1	1	1	1	1	1	1	1	1	1	1	1	1	1	1	1	1	1	1	1	1	1	1	1	1	1	1	1	1	1	1	1	1	1	1	1	1	1	1	1	1	1	1	1	1	1	1	1	1	1	1	1	1	1	1	1	1	1	1	1	1	1	1	1	1	1	0.994576	0.919611	0.703017	0.532348	0.580892	0.782308	0.988439	1	1	1	1	1	1	1	1	1	1	0.96227	0.833749	0.710557	0.599328	0.555958	0.55544	0.68976	0.729092	0.724821	0.743726	0.720582	0.660858	0.584204	0.536888	0.565457	0.65812	0.855279	0.885748	0.917366	0.877889	0.760306	0.636063	0.531603	0.602577	0.808277	0.991865	1	1	1	1	0.998911	0.958812	0.75416	0.568835	0.540124	0.721278	0.941886	1	1	1	1	1	1	1	1	1	1	1	1	1	1	1	1	1	1	1	1	1	1	1	1	1	1	1	1	1	1	1	1	1	1	1	1	1	1	1	1	1	1	1	1	1	1	1	1	1	1	1	1	1	1	1	1	1	1	1	1	1	1	1	1	1	1	1	0.809259	0.607602	0.514059	0.675844	0.907173	0.99888	1	1	1	1	1	1	1	1	1	1	1	0.930413	0.858653	0.782734	0.72757	0.70269	0.711856	0.766976	0.871234	0.919327	0.909045	0.854913	0.75818	0.64434	0.531168	0.589781	0.670707	0.725255	0.716175	0.701388	0.598568	0.523401	0.53534	0.653089	0.850413	0.986803	1	1	1	1	1	0.98328	0.883452	0.68228	0.57412	0.642115	0.799824	0.930329	0.971772	1	1	1	1	1	1	1	1	1	1	1	1	1	1	1	1	1	1	1	1	1	1	1	1	1	1	1	1	1	1	1	1	1	1	1	1	1	1	1	1	1	1	1	1	1	1	1	1	1	1	1	1	1	1	1	1	1	1	1	1	1	1	1	0.999322	0.906013	0.691586	0.526118	0.591362	0.794524	1	1	1	1	1	1	1	1	1	1	1	1	1	1	0.98387	0.937692	0.899385	0.881621	0.886941	0.91189	0.948035	1	1	1	0.942887	0.765845	0.643319	0.541207	0.527161	0.543812	0.561083	0.546793	0.526771	0.536872	0.605287	0.777467	0.926284	1	1	1	1	1	1	0.998644	0.987752	0.786067	0.57252	0.490928	0.575393	0.691617	0.746786	0.809472	0.873381	0.933665	0.989996	1	1	1	1	1	1	1	1	1	1	1	1	1	1	1	1	1	1	1	1	1	1	1	1	1	1	1	1	1	1	1	1	1	1	1	1	1	1	1	1	1	1	1	1	1	1	1	1	1	1	1	1	1	1	1	1	1	1	1	0.993251	0.790523	0.591722	0.522854	0.691476	0.918486	0.993436	1	1	1	1	1	1	1	1	1	1	1	1	1	1	1	1	1	1	1	1	1	1	1	1	0.938779	0.77451	0.637314	0.562721	0.532947	0.531271	0.536357	0.574397	0.653807	0.777243	0.902946	1	1	1	1	1	1	1	1	1	0.807891	0.538689	0.372192	0.396323	0.486316	0.506341	0.56532	0.62232	0.710893	0.854024	0.965191	1	1	1	1	1	1	1	1	1	1	1	1	1	1	1	1	1	1	1	1	1	1	1	1	1	1	1	1	1	1	1	1	1	1	1	1	1	1	1	1	1	1	1	1	1	1	1	1	1	1	1	1	1	1	1	1	1	1	0.888805	0.676119	0.517811	0.599406	0.81024	0.99656	1	1	1	1	1	1	1	1	1	1	1	1	1	1	1	1	1	1	1	1	1	1	1	1	1	0.99854	0.930622	0.853502	0.772881	0.721292	0.707221	0.727531	0.780167	0.847901	0.93089	1	1	1	1	1	1	1	1	1	0.966311	0.76577	0.515303	0.360963	0.416783	0.50122	0.55096	0.562532	0.526839	0.539762	0.640917	0.857574	0.990687	1	1	1	1	1	1	1	1	1	1	1	1	1	1	1	1	1	1	1	1	1	1	1	1	1	1	1	1	1	1	1	1	1	1	1	1	1	1	1	1	1	1	1	1	1	1	1	1	1	1	1	1	1	1	1	1	0.981919	0.772897	0.583919	0.534812	0.703049	0.931774	0.991928	1	1	1	1	1	1	1	1	1	1	1	1	1	1	1	1	1	1	1	1	1	1	1	1	1	1	1	0.993275	0.954279	0.923655	0.913396	0.926131	0.958632	0.998636	1	1	1	1	1	1	1	1	1	1	0.92228	0.666321	0.464591	0.511183	0.667703	0.784844	0.835386	0.798113	0.688354	0.540661	0.549764	0.716355	0.931155	1	1	1	1	1	1	1	1	1	1	1	1	1	1	1	1	1	1	1	1	1	1	1	1	1	1	1	1	1	1	1	1	1	1	1	1	1	1	1	1	1	1	1	1	1	1	1	1	1	1	1	1	1	1	1	1	0.869509	0.661174	0.511072	0.613662	0.826369	0.995562	1	1	1	1	1	1	1	1	1	1	1	1	1	1	1	1	1	1	1	1	1	1	1	1	1	1	1	1	1	1	1	1	1	1	1	1	1	1	1	1	1	1	1	1	1	0.866008	0.614032	0.517625	0.691279	0.897895	0.990131	1	0.959589	0.85352	0.673275	0.539792	0.617244	0.876893	1	1	1	1	1	1	1	1	1	1	1	1	1	1	1	1	1	1	1	1	1	1	1	1	1	1	1	1	1	1	1	1	1	1	1	1	1	1	1	1	1	1	1	1	1	1	1	1	1	1	1	1	1	1	1	0.968886	0.758022	0.573913	0.547998	0.720542	0.945432	0.993247	1	1	1	1	1	1	1	1	1	1	1	1	1	1	1	1	1	1	1	1	1	1	1	1	1	1	1	1	1	1	1	1	1	1	1	1	1	1	1	1	1	1	1	1	0.998355	0.819262	0.568726	0.560324	0.814017	1	1	1	1	0.956684	0.778943	0.562553	0.568071	0.828631	0.998427	1	1	1	1	1	1	1	1	1	1	1	1	1	1	1	1	1	1	1	1	1	1	1	1	1	1	1	1	1	1	1	1	1	1	1	1	1	1	1	1	1	1	1	1	1	1	1	1	1	1	1	1	1	1	0.856705	0.644976	0.507493	0.629214	0.844326	0.996961	1	1	1	1	1	1	1	1	1	1	1	1	1	1	1	1	1	1	1	1	1	1	1	1	1	1	1	1	1	1	1	1	1	1	1	1	1	1	1	1	1	1	1	1	1	0.994763	0.80321	0.556649	0.568598	0.804702	0.984497	1	1	1	0.984098	0.814226	0.583016	0.563952	0.807704	0.993515	1	1	1	1	1	1	1	1	1	1	1	1	1	1	1	1	1	1	1	1	1	1	1	1	1	1	1	1	1	1	1	1	1	1	1	1	1	1	1	1	1	1	1	1	1	1	1	1	1	1	1	1	0.999969	0.955817	0.73885	0.561733	0.560475	0.739897	0.962661	0.995544	1	1	1	1	1	1	1	1	1	1	1	1	1	1	1	1	1	1	1	1	1	1	1	1	1	1	1	1	1	1	1	1	1	1	1	1	1	1	1	1	1	1	1	1	1	0.999066	0.82213	0.564385	0.548828	0.776257	0.956875	1	1	1	1	0.827455	0.575883	0.592262	0.825786	0.996675	1	1	1	1	1	1	1	1	1	1	1	1	1	1	1	1	1	1	1	1	1	1	1	1	1	1	1	1	1	1	1	1	1	1	1	1	1	1	1	1	1	1	1	1	1	1	1	1	1	1	1	1	1	0.846541	0.634109	0.512663	0.642279	0.85943	0.999532	1	1	1	1	1	1	1	1	1	1	1	1	1	1	1	1	1	1	1	1	1	1	1	1	1	1	1	1	1	1	1	1	1	1	1	1	1	1	1	1	1	1	1	1	1	1	1	0.871253	0.612141	0.52671	0.66851	0.853953	0.957954	1	0.990415	0.926998	0.718668	0.532127	0.614693	0.866057	1	1	1	1	1	1	1	1	1	1	1	1	1	1	1	1	1	1	1	1	1	1	1	1	1	1	1	1	1	1	1	1	1	1	1	1	1	1	1	1	1	1	1	1	1	1	1	1	1	1	1	1	0.997635	0.940556	0.720928	0.550016	0.575056	0.754303	0.973082	0.998299	1	1	1	1	1	1	1	1	1	1	1	1	1	1	1	1	1	1	1	1	1	1	1	1	1	1	1	1	1	1	1	1	1	1	1	1	1	1	1	1	1	1	1	1	1	1	1	0.929773	0.70827	0.540279	0.55835	0.703494	0.82607	0.855519	0.805156	0.68112	0.514483	0.446386	0.624342	0.879025	1	1	1	1	1	1	1	1	1	1	1	1	1	1	1	1	1	1	1	1	1	1	1	1	1	1	1	1	1	1	1	1	1	1	1	1	1	1	1	1	1	1	1	1	1	1	1	1	1	1	1	1	1	0.821823	0.622635	0.517301	0.665073	0.875278	1	1	1	1	1	1	1	1	1	1	1	1	1	1	1	1	1	1	1	1	1	1	1	1	1	1	1	1	1	1	1	1	1	1	1	1	1	1	1	1	1	1	1	1	1	1	1	1	1	0.990813	0.850381	0.637314	0.54689	0.541102	0.578635	0.555437	0.491258	0.396004	0.325263	0.453582	0.628397	0.838059	0.981328	0.963535	1	1	1	1	1	1	1	1	1	1	1	1	1	1	1	1	1	1	1	1	1	1	1	1	1	1	1	1	1	1	1	1	1	1	1	1	1	1	1	1	1	1	1	1	1	1	1	1	1	0.99444	0.92371	0.705559	0.547218	0.585912	0.778058	0.986209	1	1	1	1	1	1	1	1	1	1	1	1	1	1	1	1	1	1	1	1	1	1	1	1	1	1	1	1	1	1	1	1	1	1	1	1	1	1	1	1	1	1	1	1	1	1	1	1	1	1	0.963833	0.856015	0.71845	0.648435	0.568001	0.46612	0.452876	0.35756	0.328941	0.410995	0.585781	0.746077	0.852446	0.790123	0.868977	0.944918	1	1	1	1	1	1	1	1	1	1	1	1	1	1	1	1	1	1	1	1	1	1	1	1	1	1	1	1	1	1	1	1	1	1	1	1	1	1	1	1	1	1	1	1	1	1	1	0.997747	0.803526	0.602637	0.52272	0.680345	0.894292	1	1	1	1	1	1	1	1	1	1	1	1	1	1	1	1	1	1	1	1	1	1	1	1	1	1	1	1	1	1	1	1	1	1	1	1	1	1	1	1	1	1	1	1	1	1	1	1	1	1	1	1	0.987528	0.938317	0.88179	0.772954	0.660694	0.540829	0.412148	0.351305	0.409246	0.540701	0.648858	0.729053	0.650333	0.671127	0.775455	0.890305	0.982654	1	1	1	1	1	1	1	1	1	1	1	1	1	1	1	1	1	1	1	1	1	1	1	1	1	1	1	1	1	1	1	1	1	1	1	1	1	1	1	1	1	1	1	1	0.989088	0.905748	0.683517	0.53061	0.594475	0.792552	0.99817	1	1	1	1	1	1	1	1	1	1	1	1	1	1	1	1	1	1	1	1	1	1	1	1	1	1	1	1	1	1	1	1	1	1	1	1	1	1	1	1	1	1	1	1	1	1	1	1	1	1	1	1	1	1	1	0.968632	0.822444	0.669187	0.514336	0.43354	0.461369	0.562322	0.643885	0.703475	0.58398	0.550397	0.610419	0.718221	0.856976	0.97601	1	1	1	1	1	1	1	1	1	1	1	1	1	1	1	1	1	1	1	1	1	1	1	1	1	1	1	1	1	1	1	1	1	1	1	1	1	1	1	1	1	1	1	0.990302	0.781044	0.586929	0.52708	0.688659	0.908234	1	1	1	1	1	1	1	1	1	1	1	1	1	1	1	1	1	1	1	1	1	1	1	1	1	1	1	1	1	1	1	1	1	1	1	1	1	1	1	1	1	1	1	1	1	1	1	1	1	1	1	1	1	1	1	1	1	0.893948	0.720251	0.586536	0.531204	0.565699	0.68918	0.784628	0.799656	0.620356	0.533557	0.52004	0.586269	0.705843	0.866332	0.994594	1	1	1	1	1	1	1	1	1	1	1	1	1	1	1	1	1	1	1	1	1	1	1	1	1	1	1	1	1	1	1	1	1	1	1	1	1	1	1	1	1	0.976181	0.875851	0.661489	0.521336	0.609872	0.810459	1	1	1	1	1	1	1	1	1	1	1	1	1	1	1	1	1	1	1	1	1	1	1	1	1	1	1	1	1	1	1	1	1	1	1	1	1	1	1	1	1	1	1	1	1	1	1	1	1	1	1	1	1	1	1	1	1	0.954464	0.794339	0.70016	0.628259	0.649423	0.730933	0.85158	0.95947	0.943193	0.778987	0.646473	0.550755	0.502169	0.587558	0.738447	0.913104	1	1	1	1	1	1	1	1	1	1	1	1	1	1	1	1	1	1	1	1	1	1	1	1	1	1	1	1	1	1	1	1	1	1	1	1	1	1	1	1	0.951181	0.958126	0.74496	0.568796	0.539755	0.718413	0.93271	1	1	1	1	1	1	1	1	1	1	1	1	1	1	1	1	1	1	1	1	1	1	1	1	1	1	1	1	1	1	1	1	1	1	1	1	1	1	1	1	1	1	1	1	1	1	1	1	1	1	1	1	1	1	1	1	1	0.922576	0.718963	0.599488	0.64999	0.789484	0.934455	0.992353	1	1	0.943253	0.806805	0.639512	0.538747	0.521698	0.625508	0.81378	0.972671	1	1	1	1	1	1	1	1	1	1	1	1	1	1	1	1	1	1	1	1	1	1	1	1	1	1	1	1	1	1	1	1	1	1	1	1	1	1	1	0.99555	0.831517	0.628576	0.511965	0.633249	0.844759	1	1	1	1	1	1	1	1	1	1	1	1	1	1	1	1	1	1	1	1	1	1	1	1	1	1	1	1	1	1	1	1	1	1	1	1	1	1	1	1	1	1	1	1	1	1	1	1	1	1	1	1	1	1	1	1	1	1	0.897037	0.685545	0.543663	0.579896	0.76871	0.989373	1	1	1	1	0.929855	0.774901	0.621719	0.51395	0.560779	0.717962	0.912291	1	1	1	1	1	1	1	1	1	1	1	1	1	1	1	1	1	1	1	1	1	1	1	1	1	1	1	1	1	1	1	1	1	1	0.999892	0.999413	1	0.997836	0.978229	0.906035	0.767968	0.559801	0.563562	0.752867	0.965653	1	1	1	1	1	1	1	1	1	1	1	1	1	1	1	1	1	1	1	1	1	1	1	1	1	1	1	1	1	1	1	1	1	1	1	1	1	1	1	1	1	1	1	1	1	1	1	1	1	1	1	1	1	1	1	1	1	1	0.885452	0.67304	0.532528	0.542246	0.725629	0.939095	1	1	1	1	0.9998	0.891403	0.715849	0.546169	0.526142	0.641856	0.848605	1	1	1	1	1	1	1	1	1	1	1	1	1	1	1	1	1	1	1	0.998844	0.983551	0.976616	0.983502	0.998737	1	1	1	1	1	1	0.957502	0.906179	0.862367	0.83164	0.81518	0.812718	0.877017	0.830655	0.799655	0.738847	0.661819	0.668925	0.751041	0.886714	1	1	1	1	1	1	1	1	1	1	1	1	1	1	1	1	1	1	1	1	1	1	1	1	1	1	1	1	1	1	1	1	1	1	1	1	1	1	1	1	1	1	1	1	1	1	1	1	1	1	1	1	1	1	1	1	1	1	1	0.893471	0.682514	0.534454	0.540398	0.717849	0.897519	1	1	1	1	1	0.949341	0.802821	0.601796	0.518592	0.588311	0.785947	1	1	1	1	1	1	1	1	1	1	1	1	1	1	1	1	1	0.967057	0.908735	0.843532	0.799333	0.781624	0.799164	0.842611	0.909735	0.987164	1	1	0.941107	0.862895	0.776943	0.702225	0.648189	0.615078	0.599164	0.596791	0.659893	0.620915	0.590553	0.544972	0.577278	0.705794	0.900533	1	1	1	1	1	1	1	1	1	1	1	1	1	1	1	1	1	1	1	1	1	1	1	1	1	1	1	1	1	1	1	1	1	1	1	1	1	1	1	1	1	1	1	1	1	1	1	1	1	1	1	1	1	1	1	1	1	1	1	1	0.919616	0.715548	0.554172	0.516116	0.667637	0.855566	0.991309	1	1	1	1	1	0.990836	0.799988	0.666207	0.654884	0.768399	0.914839	1	1	1	1	0.965711	0.918859	0.881233	0.860297	0.873085	0.905525	0.951662	0.997275	1	1	1	0.922303	0.832776	0.686296	0.600947	0.560533	0.558945	0.560257	0.605837	0.707624	0.788217	0.861093	0.884224	0.806123	0.667219	0.596066	0.55079	0.530635	0.522893	0.524377	0.596946	0.560387	0.529965	0.455748	0.418192	0.531663	0.748243	0.962655	1	1	1	1	1	1	1	1	1	1	1	1	1	1	1	1	1	1	1	1	1	1	1	1	1	1	1	1	1	1	1	1	1	1	1	1	1	1	1	1	1	1	1	1	1	1	1	1	1	1	1	1	1	1	1	1	1	1	1	1	0.958675	0.772655	0.590672	0.510502	0.600946	0.759681	0.929172	1	1	1	1	1	1	0.847628	0.634831	0.56297	0.638227	0.876242	0.972542	0.987105	0.907493	0.856669	0.84398	0.790481	0.744151	0.719515	0.720985	0.73519	0.763549	0.84303	0.938128	0.980201	0.922419	0.732421	0.597878	0.562489	0.537731	0.555405	0.568711	0.555342	0.550155	0.537429	0.553015	0.652139	0.701453	0.672929	0.545395	0.513422	0.525974	0.556552	0.594353	0.612253	0.717161	0.625656	0.588152	0.469242	0.411229	0.538816	0.792242	0.965106	1	1	1	1	1	1	1	1	1	1	1	1	1	1	1	1	1	1	1	1	1	1	1	1	1	1	1	1	1	1	1	1	1	1	1	1	1	1	1	1	1	1	1	1	1	1	1	1	1	1	1	1	1	1	1	1	1	1	1	1	0.999818	0.848734	0.649741	0.527474	0.535368	0.643229	0.826382	0.976225	1	1	1	1	1	0.87914	0.639492	0.538877	0.651896	0.769901	0.81966	0.794585	0.65214	0.605183	0.605198	0.64923	0.631852	0.619639	0.607876	0.607667	0.621856	0.675145	0.812695	0.816864	0.732869	0.563224	0.486123	0.549677	0.690917	0.74699	0.749994	0.747468	0.698706	0.531242	0.453878	0.502982	0.579469	0.62747	0.625952	0.588828	0.669591	0.743357	0.798148	0.842983	0.914366	0.81626	0.750511	0.593156	0.518097	0.605141	0.816176	0.966981	1	1	1	1	1	1	1	1	1	1	1	1	1	1	1	1	1	1	1	1	1	1	1	1	1	1	1	1	1	1	1	1	1	1	1	1	1	1	1	1	1	1	1	1	1	1	1	1	1	1	1	1	1	1	1	1	1	1	1	1	1	0.928131	0.750775	0.590206	0.501391	0.560421	0.680921	0.84034	1	1	1	1	0.988958	0.780448	0.630243	0.576062	0.627208	0.676767	0.65288	0.60107	0.429862	0.423151	0.494809	0.610609	0.680939	0.677143	0.647001	0.608268	0.560636	0.682093	0.715119	0.668753	0.564053	0.45868	0.462899	0.660496	0.883503	0.929333	0.95891	0.931134	0.875912	0.657314	0.44902	0.423615	0.518734	0.661221	0.758149	0.770215	0.836781	0.912406	0.953738	0.998828	1	0.964804	0.879465	0.73762	0.653091	0.689592	0.829574	0.926485	1	1	1	1	1	1	1	1	1	1	1	1	1	1	1	1	1	1	1	1	1	1	1	1	1	1	1	1	1	1	1	1	1	1	1	1	1	1	1	1	1	1	1	1	1	1	1	1	1	1	1	1	1	1	1	1	1	1	1	1	1	0.999204	0.866277	0.697115	0.573716	0.519322	0.558022	0.719603	1	1	1	0.962517	0.789324	0.5912	0.498235	0.504396	0.572511	0.607739	0.597907	0.501408	0.349139	0.386817	0.511047	0.675133	0.847364	0.860521	0.806565	0.727832	0.707836	0.746671	0.693026	0.568082	0.458672	0.417906	0.482692	0.774333	0.98183	1	1	1	0.976519	0.77521	0.482307	0.406376	0.488098	0.695633	0.895478	0.973099	0.976849	1	1	1	1	1	1	0.925895	0.803042	0.755526	0.786774	0.859979	1	1	1	1	1	1	1	1	1	1	1	1	1	1	1	1	1	1	1	1	1	1	1	1	1	1	1	1	1	1	1	1	1	1	1	1	1	1	1	1	1	1	1	1	1	1	1	1	1	1	1	1	1	1	1	1	1	1	1	1	1	1	0.969394	0.83883	0.688638	0.578633	0.539931	0.684988	0.916027	1	0.926132	0.736344	0.566383	0.42329	0.367674	0.428931	0.468928	0.579661	0.562363	0.487974	0.383777	0.479295	0.641864	0.819848	1	1	0.97661	0.934805	0.90151	0.856652	0.696799	0.513929	0.417826	0.340977	0.484661	0.78749	1	1	1	1	1	0.793764	0.499276	0.360771	0.48668	0.724683	0.95187	1	1	1	1	1	1	1	1	0.970293	0.785423	0.695237	0.677408	0.840888	1	1	1	1	1	1	1	1	1	1	1	1	1	1	1	1	1	1	1	1	1	1	1	1	1	1	1	1	1	1	1	1	1	1	1	1	1	1	1	1	1	1	1	1	1	1	1	1	1	1	1	1	1	1	1	1	1	1	1	1	1	1	1	0.964784	0.855267	0.721222	0.606867	0.693901	0.814725	0.860855	0.744396	0.569512	0.396323	0.319411	0.331196	0.410991	0.508917	0.588071	0.557857	0.490208	0.51095	0.599781	0.790032	0.954014	1	1	1	1	1	0.938724	0.738559	0.503905	0.391271	0.390275	0.463116	0.751365	0.989404	1	1	1	0.990007	0.757451	0.476214	0.386181	0.500228	0.738589	0.966537	1	1	1	1	1	1	1	1	0.950869	0.759571	0.667326	0.651116	0.833698	1	1	1	1	1	1	1	1	1	1	1	1	1	1	1	1	1	1	1	1	1	1	1	1	1	1	1	1	1	1	1	1	1	1	1	1	1	1	1	1	1	1	1	1	1	1	1	1	1	1	1	1	1	1	1	1	1	1	1	1	1	1	1	1	0.983478	0.897766	0.786993	0.800639	0.781058	0.821598	0.674097	0.489798	0.355597	0.296846	0.35357	0.440011	0.534469	0.590129	0.539103	0.463596	0.532093	0.737462	0.948784	1	1	1	1	1	1	0.977477	0.780343	0.525491	0.389979	0.412399	0.407629	0.653056	0.869821	0.987285	0.965132	0.978205	0.870068	0.664816	0.421477	0.402638	0.522793	0.749538	0.952136	1	1	1	1	1	1	1	1	0.989989	0.82014	0.736201	0.756427	0.839259	1	1	1	1	1	1	1	1	1	1	1	1	1	1	1	1	1	1	1	1	1	1	1	1	1	1	1	1	1	1	1	1	1	1	1	1	1	1	1	1	1	1	1	1	1	1	1	1	1	1	1	1	1	1	1	1	1	1	1	1	1	1	1	1	1	1	0.950156	0.957008	0.942252	0.869873	0.697054	0.531414	0.429336	0.404915	0.453532	0.519711	0.565101	0.549497	0.478782	0.475466	0.547893	0.781086	0.986382	1	1	1	1	1	1	0.96827	0.770526	0.536628	0.412186	0.43113	0.387303	0.518429	0.689679	0.81599	0.799411	0.804838	0.692606	0.523233	0.399808	0.432404	0.54636	0.716987	0.855238	0.90152	0.957085	1	1	1	1	1	0.987541	0.881733	0.763348	0.74717	0.826111	0.867063	1	1	1	1	1	1	1	1	1	1	1	1	1	1	1	1	1	1	1	1	1	1	1	1	1	1	1	1	1	1	1	1	1	1	1	1	1	1	1	1	1	1	1	1	1	1	1	1	1	1	1	1	1	1	1	1	1	1	1	1	1	1	1	1	1	1	1	1	0.960092	0.889795	0.715978	0.588156	0.540967	0.533501	0.618217	0.667809	0.674381	0.582665	0.463923	0.398755	0.455094	0.661004	0.881083	1	1	1	1	1	1	0.941182	0.759748	0.560752	0.431121	0.517654	0.443622	0.476839	0.549112	0.592664	0.588043	0.585982	0.558585	0.495388	0.479188	0.543578	0.606261	0.647599	0.681754	0.711247	0.800981	0.885401	0.931702	0.969763	1	0.938674	0.84322	0.705369	0.590929	0.617731	0.792833	0.958132	1	1	1	1	1	1	1	1	1	1	1	1	1	1	1	1	1	1	1	1	1	1	1	1	1	1	1	1	1	1	1	1	1	1	1	1	1	1	1	1	1	1	1	1	1	1	1	1	1	1	1	1	1	1	1	1	1	1	1	1	1	1	1	1	1	1	1	1	0.956088	0.817044	0.718872	0.641111	0.655016	0.730898	0.782007	0.853186	0.838122	0.689069	0.476469	0.358592	0.417086	0.595621	0.795992	0.996246	1	0.997955	0.977166	0.91466	0.838528	0.792496	0.713834	0.614078	0.5174	0.668221	0.64761	0.628052	0.624773	0.564992	0.551168	0.561662	0.633076	0.648632	0.687201	0.715378	0.691591	0.619001	0.513366	0.553691	0.611445	0.696969	0.754376	0.779353	0.857091	0.764873	0.712633	0.560643	0.447183	0.537951	0.762149	0.933306	1	1	1	1	1	1	1	1	1	1	1	1	1	1	1	1	1	1	1	1	1	1	1	1	1	1	1	1	1	1	1	1	1	1	1	1	1	1	1	1	1	1	1	1	1	1	1	1	1	1	1	1	1	1	1	1	1	1	1	1	1	1	1	1	1	1	0.99283	0.908524	0.818765	0.707307	0.665869	0.654344	0.717141	0.803574	0.880729	0.966846	0.964145	0.795507	0.548301	0.439938	0.4396	0.536476	0.712654	0.857627	0.921799	0.884936	0.848448	0.760068	0.62988	0.568206	0.626658	0.657792	0.668192	0.847234	0.892267	0.883919	0.86917	0.789324	0.772169	0.789701	0.840213	0.905755	0.919716	0.911912	0.834721	0.646317	0.560486	0.504935	0.516516	0.53142	0.567832	0.574879	0.640935	0.601495	0.541974	0.458379	0.396667	0.492121	0.733839	0.965204	1	1	0.999535	0.9552	0.910291	0.880068	0.871669	0.887804	0.925812	0.974373	1	1	1	1	1	1	1	1	1	1	1	1	1	1	1	1	1	1	1	1	1	1	1	1	1	1	1	1	1	1	1	1	1	1	1	1	1	1	1	1	1	1	1	1	1	1	1	1	1	1	1	1	1	1	0.991983	0.92228	0.839066	0.702167	0.598685	0.549534	0.566138	0.632571	0.711211	0.803106	0.932264	1	1	0.914031	0.755263	0.617029	0.545847	0.568725	0.605517	0.664182	0.689433	0.665511	0.635766	0.58617	0.53626	0.502742	0.584901	0.75155	0.847274	0.974939	1	1	0.994937	0.977057	0.969309	0.976945	0.994488	1	1	1	0.93099	0.824731	0.709365	0.614905	0.55301	0.5312	0.520053	0.520943	0.524941	0.573155	0.513555	0.497405	0.45514	0.546066	0.743914	0.902112	0.976833	0.979155	0.929282	0.858196	0.732918	0.687106	0.675945	0.694263	0.746391	0.823133	0.911759	0.998276	1	1	1	1	1	1	1	1	1	1	1	1	1	1	1	1	1	1	1	1	1	1	1	1	1	1	1	1	1	1	1	1	1	1	1	1	1	1	1	1	1	1	1	1	1	1	1	1	1	1	1	0.953199	0.800492	0.682719	0.632456	0.531629	0.472877	0.479881	0.496752	0.583932	0.666245	0.799894	0.965771	1	1	1	0.954669	0.844816	0.76243	0.647843	0.577183	0.559169	0.542705	0.527885