# vtk DataFile Version 2.0
output106.vtk
ASCII 
DATASET STRUCTURED_GRID
DIMENSIONS 120 200 1
POINTS 24000 float
0 0 1
0 1 1
0 2 1
0 3 1
0 4 1
0 5 1
0 6 1
0 7 1
0 8 1
0 9 1
0 10 1
0 11 1
0 12 1
0 13 1
0 14 1
0 15 1
0 16 1
0 17 1
0 18 1
0 19 1
0 20 1
0 21 1
0 22 1
0 23 1
0 24 1
0 25 1
0 26 1
0 27 1
0 28 1
0 29 1
0 30 1
0 31 1
0 32 1
0 33 1
0 34 1
0 35 1
0 36 1
0 37 1
0 38 1
0 39 1
0 40 1
0 41 1
0 42 1
0 43 1
0 44 1
0 45 1
0 46 1
0 47 1
0 48 1
0 49 1
0 50 1
0 51 1
0 52 1
0 53 1
0 54 1
0 55 1
0 56 1
0 57 1
0 58 1
0 59 1
0 60 1
0 61 1
0 62 1
0 63 1
0 64 1
0 65 1
0 66 1
0 67 1
0 68 1
0 69 1
0 70 1
0 71 1
0 72 1
0 73 1
0 74 1
0 75 1
0 76 1
0 77 1
0 78 1
0 79 1
0 80 1
0 81 1
0 82 1
0 83 1
0 84 1
0 85 1
0 86 1
0 87 1
0 88 1
0 89 1
0 90 1
0 91 1
0 92 1
0 93 1
0 94 1
0 95 1
0 96 1
0 97 1
0 98 1
0 99 1
0 100 1
0 101 1
0 102 1
0 103 1
0 104 1
0 105 1
0 106 1
0 107 1
0 108 1
0 109 1
0 110 1
0 111 1
0 112 1
0 113 1
0 114 1
0 115 1
0 116 1
0 117 1
0 118 1
0 119 1
1 0 1
1 1 1
1 2 1
1 3 1
1 4 1
1 5 1
1 6 1
1 7 1
1 8 1
1 9 1
1 10 1
1 11 1
1 12 1
1 13 1
1 14 1
1 15 1
1 16 1
1 17 1
1 18 1
1 19 1
1 20 1
1 21 1
1 22 1
1 23 1
1 24 1
1 25 1
1 26 1
1 27 1
1 28 1
1 29 1
1 30 1
1 31 1
1 32 1
1 33 1
1 34 1
1 35 1
1 36 1
1 37 1
1 38 1
1 39 1
1 40 1
1 41 1
1 42 1
1 43 1
1 44 1
1 45 1
1 46 1
1 47 1
1 48 1
1 49 1
1 50 1
1 51 1
1 52 1
1 53 1
1 54 1
1 55 1
1 56 1
1 57 1
1 58 1
1 59 1
1 60 1
1 61 1
1 62 1
1 63 1
1 64 1
1 65 1
1 66 1
1 67 1
1 68 1
1 69 1
1 70 1
1 71 1
1 72 1
1 73 1
1 74 1
1 75 1
1 76 1
1 77 1
1 78 1
1 79 1
1 80 1
1 81 1
1 82 1
1 83 1
1 84 1
1 85 1
1 86 1
1 87 1
1 88 1
1 89 1
1 90 1
1 91 1
1 92 1
1 93 1
1 94 1
1 95 1
1 96 1
1 97 1
1 98 1
1 99 1
1 100 1
1 101 1
1 102 1
1 103 1
1 104 1
1 105 1
1 106 1
1 107 1
1 108 1
1 109 1
1 110 1
1 111 1
1 112 1
1 113 1
1 114 1
1 115 1
1 116 1
1 117 1
1 118 1
1 119 1
2 0 1
2 1 1
2 2 1
2 3 1
2 4 1
2 5 1
2 6 1
2 7 1
2 8 1
2 9 1
2 10 1
2 11 1
2 12 1
2 13 1
2 14 1
2 15 1
2 16 1
2 17 1
2 18 1
2 19 1
2 20 1
2 21 1
2 22 1
2 23 1
2 24 1
2 25 1
2 26 1
2 27 1
2 28 1
2 29 1
2 30 1
2 31 1
2 32 1
2 33 1
2 34 1
2 35 1
2 36 1
2 37 1
2 38 1
2 39 1
2 40 1
2 41 1
2 42 1
2 43 1
2 44 1
2 45 1
2 46 1
2 47 1
2 48 1
2 49 1
2 50 1
2 51 1
2 52 1
2 53 1
2 54 1
2 55 1
2 56 1
2 57 1
2 58 1
2 59 1
2 60 1
2 61 1
2 62 1
2 63 1
2 64 1
2 65 1
2 66 1
2 67 1
2 68 1
2 69 1
2 70 1
2 71 1
2 72 1
2 73 1
2 74 1
2 75 1
2 76 1
2 77 1
2 78 1
2 79 1
2 80 1
2 81 1
2 82 1
2 83 1
2 84 1
2 85 1
2 86 1
2 87 1
2 88 1
2 89 1
2 90 1
2 91 1
2 92 1
2 93 1
2 94 1
2 95 1
2 96 1
2 97 1
2 98 1
2 99 1
2 100 1
2 101 1
2 102 1
2 103 1
2 104 1
2 105 1
2 106 1
2 107 1
2 108 1
2 109 1
2 110 1
2 111 1
2 112 1
2 113 1
2 114 1
2 115 1
2 116 1
2 117 1
2 118 1
2 119 1
3 0 1
3 1 1
3 2 1
3 3 1
3 4 1
3 5 1
3 6 1
3 7 1
3 8 1
3 9 1
3 10 1
3 11 1
3 12 1
3 13 1
3 14 1
3 15 1
3 16 1
3 17 1
3 18 1
3 19 1
3 20 1
3 21 1
3 22 1
3 23 1
3 24 1
3 25 1
3 26 1
3 27 1
3 28 1
3 29 1
3 30 1
3 31 1
3 32 1
3 33 1
3 34 1
3 35 1
3 36 1
3 37 1
3 38 1
3 39 1
3 40 1
3 41 1
3 42 1
3 43 1
3 44 1
3 45 1
3 46 1
3 47 1
3 48 1
3 49 1
3 50 1
3 51 1
3 52 1
3 53 1
3 54 1
3 55 1
3 56 1
3 57 1
3 58 1
3 59 1
3 60 1
3 61 1
3 62 1
3 63 1
3 64 1
3 65 1
3 66 1
3 67 1
3 68 1
3 69 1
3 70 1
3 71 1
3 72 1
3 73 1
3 74 1
3 75 1
3 76 1
3 77 1
3 78 1
3 79 1
3 80 1
3 81 1
3 82 1
3 83 1
3 84 1
3 85 1
3 86 1
3 87 1
3 88 1
3 89 1
3 90 1
3 91 1
3 92 1
3 93 1
3 94 1
3 95 1
3 96 1
3 97 1
3 98 1
3 99 1
3 100 1
3 101 1
3 102 1
3 103 1
3 104 1
3 105 1
3 106 1
3 107 1
3 108 1
3 109 1
3 110 1
3 111 1
3 112 1
3 113 1
3 114 1
3 115 1
3 116 1
3 117 1
3 118 1
3 119 1
4 0 1
4 1 1
4 2 1
4 3 1
4 4 1
4 5 1
4 6 1
4 7 1
4 8 1
4 9 1
4 10 1
4 11 1
4 12 1
4 13 1
4 14 1
4 15 1
4 16 1
4 17 1
4 18 1
4 19 1
4 20 1
4 21 1
4 22 1
4 23 1
4 24 1
4 25 1
4 26 1
4 27 1
4 28 1
4 29 1
4 30 1
4 31 1
4 32 1
4 33 1
4 34 1
4 35 1
4 36 1
4 37 1
4 38 1
4 39 1
4 40 1
4 41 1
4 42 1
4 43 1
4 44 1
4 45 1
4 46 1
4 47 1
4 48 1
4 49 1
4 50 1
4 51 1
4 52 1
4 53 1
4 54 1
4 55 1
4 56 1
4 57 1
4 58 1
4 59 1
4 60 1
4 61 1
4 62 1
4 63 1
4 64 1
4 65 1
4 66 1
4 67 1
4 68 1
4 69 1
4 70 1
4 71 1
4 72 1
4 73 1
4 74 1
4 75 1
4 76 1
4 77 1
4 78 1
4 79 1
4 80 1
4 81 1
4 82 1
4 83 1
4 84 1
4 85 1
4 86 1
4 87 1
4 88 1
4 89 1
4 90 1
4 91 1
4 92 1
4 93 1
4 94 1
4 95 1
4 96 1
4 97 1
4 98 1
4 99 1
4 100 1
4 101 1
4 102 1
4 103 1
4 104 1
4 105 1
4 106 1
4 107 1
4 108 1
4 109 1
4 110 1
4 111 1
4 112 1
4 113 1
4 114 1
4 115 1
4 116 1
4 117 1
4 118 1
4 119 1
5 0 1
5 1 1
5 2 1
5 3 1
5 4 1
5 5 1
5 6 1
5 7 1
5 8 1
5 9 1
5 10 1
5 11 1
5 12 1
5 13 1
5 14 1
5 15 1
5 16 1
5 17 1
5 18 1
5 19 1
5 20 1
5 21 1
5 22 1
5 23 1
5 24 1
5 25 1
5 26 1
5 27 1
5 28 1
5 29 1
5 30 1
5 31 1
5 32 1
5 33 1
5 34 1
5 35 1
5 36 1
5 37 1
5 38 1
5 39 1
5 40 1
5 41 1
5 42 1
5 43 1
5 44 1
5 45 1
5 46 1
5 47 1
5 48 1
5 49 1
5 50 1
5 51 1
5 52 1
5 53 1
5 54 1
5 55 1
5 56 1
5 57 1
5 58 1
5 59 1
5 60 1
5 61 1
5 62 1
5 63 1
5 64 1
5 65 1
5 66 1
5 67 1
5 68 1
5 69 1
5 70 1
5 71 1
5 72 1
5 73 1
5 74 1
5 75 1
5 76 1
5 77 1
5 78 1
5 79 1
5 80 1
5 81 1
5 82 1
5 83 1
5 84 1
5 85 1
5 86 1
5 87 1
5 88 1
5 89 1
5 90 1
5 91 1
5 92 1
5 93 1
5 94 1
5 95 1
5 96 1
5 97 1
5 98 1
5 99 1
5 100 1
5 101 1
5 102 1
5 103 1
5 104 1
5 105 1
5 106 1
5 107 1
5 108 1
5 109 1
5 110 1
5 111 1
5 112 1
5 113 1
5 114 1
5 115 1
5 116 1
5 117 1
5 118 1
5 119 1
6 0 1
6 1 1
6 2 1
6 3 1
6 4 1
6 5 1
6 6 1
6 7 1
6 8 1
6 9 1
6 10 1
6 11 1
6 12 1
6 13 1
6 14 1
6 15 1
6 16 1
6 17 1
6 18 1
6 19 1
6 20 1
6 21 1
6 22 1
6 23 1
6 24 1
6 25 1
6 26 1
6 27 1
6 28 1
6 29 1
6 30 1
6 31 1
6 32 1
6 33 1
6 34 1
6 35 1
6 36 1
6 37 1
6 38 1
6 39 1
6 40 1
6 41 1
6 42 1
6 43 1
6 44 1
6 45 1
6 46 1
6 47 1
6 48 1
6 49 1
6 50 1
6 51 1
6 52 1
6 53 1
6 54 1
6 55 1
6 56 1
6 57 1
6 58 1
6 59 1
6 60 1
6 61 1
6 62 1
6 63 1
6 64 1
6 65 1
6 66 1
6 67 1
6 68 1
6 69 1
6 70 1
6 71 1
6 72 1
6 73 1
6 74 1
6 75 1
6 76 1
6 77 1
6 78 1
6 79 1
6 80 1
6 81 1
6 82 1
6 83 1
6 84 1
6 85 1
6 86 1
6 87 1
6 88 1
6 89 1
6 90 1
6 91 1
6 92 1
6 93 1
6 94 1
6 95 1
6 96 1
6 97 1
6 98 1
6 99 1
6 100 1
6 101 1
6 102 1
6 103 1
6 104 1
6 105 1
6 106 1
6 107 1
6 108 1
6 109 1
6 110 1
6 111 1
6 112 1
6 113 1
6 114 1
6 115 1
6 116 1
6 117 1
6 118 1
6 119 1
7 0 1
7 1 1
7 2 1
7 3 1
7 4 1
7 5 1
7 6 1
7 7 1
7 8 1
7 9 1
7 10 1
7 11 1
7 12 1
7 13 1
7 14 1
7 15 1
7 16 1
7 17 1
7 18 1
7 19 1
7 20 1
7 21 1
7 22 1
7 23 1
7 24 1
7 25 1
7 26 1
7 27 1
7 28 1
7 29 1
7 30 1
7 31 1
7 32 1
7 33 1
7 34 1
7 35 1
7 36 1
7 37 1
7 38 1
7 39 1
7 40 1
7 41 1
7 42 1
7 43 1
7 44 1
7 45 1
7 46 1
7 47 1
7 48 1
7 49 1
7 50 1
7 51 1
7 52 1
7 53 1
7 54 1
7 55 1
7 56 1
7 57 1
7 58 1
7 59 1
7 60 1
7 61 1
7 62 1
7 63 1
7 64 1
7 65 1
7 66 1
7 67 1
7 68 1
7 69 1
7 70 1
7 71 1
7 72 1
7 73 1
7 74 1
7 75 1
7 76 1
7 77 1
7 78 1
7 79 1
7 80 1
7 81 1
7 82 1
7 83 1
7 84 1
7 85 1
7 86 1
7 87 1
7 88 1
7 89 1
7 90 1
7 91 1
7 92 1
7 93 1
7 94 1
7 95 1
7 96 1
7 97 1
7 98 1
7 99 1
7 100 1
7 101 1
7 102 1
7 103 1
7 104 1
7 105 1
7 106 1
7 107 1
7 108 1
7 109 1
7 110 1
7 111 1
7 112 1
7 113 1
7 114 1
7 115 1
7 116 1
7 117 1
7 118 1
7 119 1
8 0 1
8 1 1
8 2 1
8 3 1
8 4 1
8 5 1
8 6 1
8 7 1
8 8 1
8 9 1
8 10 1
8 11 1
8 12 1
8 13 1
8 14 1
8 15 1
8 16 1
8 17 1
8 18 1
8 19 1
8 20 1
8 21 1
8 22 1
8 23 1
8 24 1
8 25 1
8 26 1
8 27 1
8 28 1
8 29 1
8 30 1
8 31 1
8 32 1
8 33 1
8 34 1
8 35 1
8 36 1
8 37 1
8 38 1
8 39 1
8 40 1
8 41 1
8 42 1
8 43 1
8 44 1
8 45 1
8 46 1
8 47 1
8 48 1
8 49 1
8 50 1
8 51 1
8 52 1
8 53 1
8 54 1
8 55 1
8 56 1
8 57 1
8 58 1
8 59 1
8 60 1
8 61 1
8 62 1
8 63 1
8 64 1
8 65 1
8 66 1
8 67 1
8 68 1
8 69 1
8 70 1
8 71 1
8 72 1
8 73 1
8 74 1
8 75 1
8 76 1
8 77 1
8 78 1
8 79 1
8 80 1
8 81 1
8 82 1
8 83 1
8 84 1
8 85 1
8 86 1
8 87 1
8 88 1
8 89 1
8 90 1
8 91 1
8 92 1
8 93 1
8 94 1
8 95 1
8 96 1
8 97 1
8 98 1
8 99 1
8 100 1
8 101 1
8 102 1
8 103 1
8 104 1
8 105 1
8 106 1
8 107 1
8 108 1
8 109 1
8 110 1
8 111 1
8 112 1
8 113 1
8 114 1
8 115 1
8 116 1
8 117 1
8 118 1
8 119 1
9 0 1
9 1 1
9 2 1
9 3 1
9 4 1
9 5 1
9 6 1
9 7 1
9 8 1
9 9 1
9 10 1
9 11 1
9 12 1
9 13 1
9 14 1
9 15 1
9 16 1
9 17 1
9 18 1
9 19 1
9 20 1
9 21 1
9 22 1
9 23 1
9 24 1
9 25 1
9 26 1
9 27 1
9 28 1
9 29 1
9 30 1
9 31 1
9 32 1
9 33 1
9 34 1
9 35 1
9 36 1
9 37 1
9 38 1
9 39 1
9 40 1
9 41 1
9 42 1
9 43 1
9 44 1
9 45 1
9 46 1
9 47 1
9 48 1
9 49 1
9 50 1
9 51 1
9 52 1
9 53 1
9 54 1
9 55 1
9 56 1
9 57 1
9 58 1
9 59 1
9 60 1
9 61 1
9 62 1
9 63 1
9 64 1
9 65 1
9 66 1
9 67 1
9 68 1
9 69 1
9 70 1
9 71 1
9 72 1
9 73 1
9 74 1
9 75 1
9 76 1
9 77 1
9 78 1
9 79 1
9 80 1
9 81 1
9 82 1
9 83 1
9 84 1
9 85 1
9 86 1
9 87 1
9 88 1
9 89 1
9 90 1
9 91 1
9 92 1
9 93 1
9 94 1
9 95 1
9 96 1
9 97 1
9 98 1
9 99 1
9 100 1
9 101 1
9 102 1
9 103 1
9 104 1
9 105 1
9 106 1
9 107 1
9 108 1
9 109 1
9 110 1
9 111 1
9 112 1
9 113 1
9 114 1
9 115 1
9 116 1
9 117 1
9 118 1
9 119 1
10 0 1
10 1 1
10 2 1
10 3 1
10 4 1
10 5 1
10 6 1
10 7 1
10 8 1
10 9 1
10 10 1
10 11 1
10 12 1
10 13 1
10 14 1
10 15 1
10 16 1
10 17 1
10 18 1
10 19 1
10 20 1
10 21 1
10 22 1
10 23 1
10 24 1
10 25 1
10 26 1
10 27 1
10 28 1
10 29 1
10 30 1
10 31 1
10 32 1
10 33 1
10 34 1
10 35 1
10 36 1
10 37 1
10 38 1
10 39 1
10 40 1
10 41 1
10 42 1
10 43 1
10 44 1
10 45 1
10 46 1
10 47 1
10 48 1
10 49 1
10 50 1
10 51 1
10 52 1
10 53 1
10 54 1
10 55 1
10 56 1
10 57 1
10 58 1
10 59 1
10 60 1
10 61 1
10 62 1
10 63 1
10 64 1
10 65 1
10 66 1
10 67 1
10 68 1
10 69 1
10 70 1
10 71 1
10 72 1
10 73 1
10 74 1
10 75 1
10 76 1
10 77 1
10 78 1
10 79 1
10 80 1
10 81 1
10 82 1
10 83 1
10 84 1
10 85 1
10 86 1
10 87 1
10 88 1
10 89 1
10 90 1
10 91 1
10 92 1
10 93 1
10 94 1
10 95 1
10 96 1
10 97 1
10 98 1
10 99 1
10 100 1
10 101 1
10 102 1
10 103 1
10 104 1
10 105 1
10 106 1
10 107 1
10 108 1
10 109 1
10 110 1
10 111 1
10 112 1
10 113 1
10 114 1
10 115 1
10 116 1
10 117 1
10 118 1
10 119 1
11 0 1
11 1 1
11 2 1
11 3 1
11 4 1
11 5 1
11 6 1
11 7 1
11 8 1
11 9 1
11 10 1
11 11 1
11 12 1
11 13 1
11 14 1
11 15 1
11 16 1
11 17 1
11 18 1
11 19 1
11 20 1
11 21 1
11 22 1
11 23 1
11 24 1
11 25 1
11 26 1
11 27 1
11 28 1
11 29 1
11 30 1
11 31 1
11 32 1
11 33 1
11 34 1
11 35 1
11 36 1
11 37 1
11 38 1
11 39 1
11 40 1
11 41 1
11 42 1
11 43 1
11 44 1
11 45 1
11 46 1
11 47 1
11 48 1
11 49 1
11 50 1
11 51 1
11 52 1
[...]
POINT_DATA 24000
SCALARS CON float 1
LOOKUP_TABLE default
1	1	1	1	1	1	1	1	1	1	1	1	1	1	1	1	1	1	1	1	1	1	1	1	1	1	1	1	1	1	1	1	1	1	1	1	1	0.932656	0.741656	0.595483	0.558739	0.633799	0.791758	0.959932	1	1	0.977632	0.944123	0.931001	0.937339	0.982456	1	1	0.967032	0.849445	0.841033	0.851668	0.867009	0.87891	0.886421	0.972437	0.998052	0.947486	0.872872	0.821529	0.712493	0.605797	0.715698	0.883712	0.957618	0.955705	0.879092	0.797835	0.792683	0.905632	1	1	1	1	1	1	1	1	1	1	1	1	1	0.82184	0.618586	0.594872	0.792947	0.985613	1	1	1	1	1	1	1	1	1	1	1	1	1	1	1	1	1	1	1	1	1	1	1	1	1	1	1	1	1	1	1	1	1	1	1	1	1	1	1	1	1	1	1	1	1	1	1	1	1	1	1	1	1	1	1	1	1	1	1	1	1	1	1	1	0.929416	0.708109	0.502105	0.413375	0.458794	0.591256	0.83336	0.871191	0.796161	0.723182	0.661653	0.696924	0.753987	0.790695	0.837879	0.833339	0.773094	0.643252	0.618438	0.603198	0.600873	0.610964	0.638514	0.756848	0.843564	0.767228	0.698836	0.616729	0.533992	0.445301	0.552533	0.802683	0.947119	0.97957	0.901752	0.777029	0.715913	0.810182	0.995958	1	1	1	1	1	1	1	1	1	1	1	1	0.931362	0.735309	0.734822	0.871925	1	1	1	1	1	1	1	1	1	1	1	1	1	1	1	1	1	1	1	1	1	1	1	1	1	1	1	1	1	1	1	1	1	1	1	1	1	1	1	1	1	1	1	1	1	1	1	1	1	1	1	1	1	1	1	1	1	1	1	1	1	1	1	1	1	0.942685	0.713146	0.502877	0.407743	0.445051	0.572115	0.806005	0.792019	0.715609	0.608747	0.603584	0.643788	0.715638	0.784515	0.813224	0.794807	0.718543	0.573816	0.546876	0.525479	0.525464	0.524941	0.553555	0.672307	0.773225	0.692402	0.629116	0.543074	0.462388	0.394021	0.525952	0.698749	0.919138	0.962528	0.885743	0.756117	0.728223	0.77349	0.927624	1	1	1	1	1	1	1	1	1	1	1	1	1	0.855633	0.791296	0.892264	0.9315	1	1	1	1	1	1	1	1	1	1	1	1	1	1	1	1	1	1	1	1	1	1	1	1	1	1	1	1	1	1	1	1	1	1	1	1	1	1	1	1	1	1	1	1	1	1	1	1	1	1	1	1	1	1	1	1	1	1	1	1	1	1	1	1	0.966442	0.766044	0.602306	0.554262	0.613167	0.744892	0.929414	0.960846	0.864052	0.772748	0.755708	0.787389	0.840848	0.89526	0.92219	0.905381	0.843018	0.72188	0.695694	0.693852	0.694043	0.688121	0.691601	0.788272	0.868373	0.780547	0.709417	0.612666	0.518915	0.459189	0.530098	0.615122	0.87119	0.907178	0.876281	0.772667	0.65813	0.652355	0.769194	1	1	1	1	1	1	1	1	1	1	1	1	0.943575	0.819554	0.830153	0.945883	0.959663	1	1	1	1	1	1	1	1	1	1	1	1	1	1	1	1	1	1	1	1	1	1	1	1	1	1	1	1	1	1	1	1	1	1	1	1	1	1	1	1	1	1	1	1	1	1	1	1	1	1	1	1	1	1	1	1	1	1	1	1	1	1	1	1	0.977401	0.873153	0.791271	0.802613	0.883189	0.997697	1	1	1	1	0.996941	1	1	1	1	1	1	0.96746	0.953499	0.950961	0.948822	0.945385	0.947025	0.968542	1	0.950101	0.868728	0.773414	0.621893	0.570966	0.630605	0.71324	0.842964	0.89204	0.829858	0.709239	0.602603	0.568661	0.62753	0.757558	0.984124	1	1	1	1	1	1	1	1	1	1	0.776281	0.653676	0.703259	0.854168	0.990405	1	1	1	1	1	1	1	1	1	1	1	1	1	1	1	1	1	1	1	1	1	1	1	1	1	1	1	1	1	1	1	1	1	1	1	1	1	1	1	1	1	1	1	1	1	1	1	1	1	1	1	1	1	1	1	1	1	1	1	1	1	1	0.917972	0.817699	0.816144	0.870742	0.950448	1	1	1	1	1	1	1	1	1	1	1	1	1	1	1	1	1	1	1	1	1	0.992123	1	1	0.971408	0.875221	0.812753	0.736009	0.678802	0.76127	0.796978	0.779488	0.708575	0.631451	0.58396	0.575873	0.581843	0.749852	0.966149	1	1	1	1	1	1	1	1	0.828911	0.607951	0.489395	0.519878	0.722544	0.930171	1	1	1	1	1	1	1	1	1	1	1	1	1	1	1	1	1	1	1	1	1	1	1	1	1	1	1	1	1	1	1	1	1	1	1	1	1	1	1	1	1	1	1	1	1	1	1	1	1	1	1	1	1	1	1	1	1	1	1	1	1	0.984954	0.778037	0.574888	0.576588	0.744503	0.930934	1	1	1	1	1	1	1	1	1	1	1	1	1	1	1	1	1	1	1	1	1	1	1	1	1	1	0.91611	0.78051	0.721874	0.670569	0.741657	0.838084	0.821721	0.772731	0.695179	0.621392	0.600712	0.572835	0.733788	0.876738	0.984745	1	1	1	1	0.957176	0.868003	0.7158	0.531579	0.427455	0.492837	0.656219	0.810962	0.872975	0.930614	1	1	1	1	1	1	1	1	1	1	1	1	1	1	1	1	1	1	1	1	1	1	1	1	1	1	1	1	1	1	1	1	1	1	1	1	1	1	1	1	1	1	1	1	1	1	1	1	1	1	1	1	1	1	1	1	1	1	1	0.851479	0.62616	0.561675	0.634984	0.791899	0.940111	0.99116	1	1	1	1	1	1	1	1	1	1	1	1	1	1	1	1	1	1	1	1	1	1	1	1	1	0.994707	0.957207	0.903831	0.862706	0.847379	0.97865	0.984226	0.943847	0.881776	0.812253	0.714742	0.626751	0.557519	0.686929	0.707976	0.673269	0.729387	0.806367	0.872625	0.849739	0.814852	0.769719	0.659977	0.588408	0.581362	0.632138	0.679458	0.644017	0.75895	0.881138	0.974141	1	1	1	1	1	1	1	1	1	1	1	1	1	1	1	1	1	1	1	1	1	1	1	1	1	1	1	1	1	1	1	1	1	1	1	1	1	1	1	1	1	1	1	1	1	1	1	1	1	1	1	1	1	1	1	1	0.924608	0.70722	0.545821	0.593871	0.742079	0.833604	0.953838	1	1	1	1	1	1	1	1	1	1	1	1	1	1	1	1	1	1	1	1	1	1	1	1	1	1	1	1	1	1	1	1	1	1	1	0.971214	0.905482	0.821419	0.725949	0.746637	0.629676	0.49405	0.510658	0.63102	0.787875	0.879491	0.913894	0.938006	0.912285	0.864286	0.773437	0.719483	0.594411	0.516577	0.585666	0.70272	0.841144	0.955597	1	1	1	1	1	1	1	1	1	1	1	1	1	1	1	1	1	1	1	1	1	1	1	1	1	1	1	1	1	1	1	1	1	1	1	1	1	1	1	1	1	1	1	1	1	1	1	1	1	1	1	1	1	1	0.989386	0.788905	0.574679	0.556303	0.678202	0.843279	0.91674	1	1	1	1	1	1	1	1	1	1	1	1	1	1	1	1	1	1	1	1	1	1	1	1	1	1	1	1	1	1	1	1	1	1	1	1	1	1	0.977794	0.972965	0.864894	0.6581	0.451602	0.467326	0.617258	0.845226	0.998292	1	1	1	1	1	0.877202	0.634151	0.518831	0.50165	0.553535	0.67199	0.824452	0.953943	1	1	1	1	1	1	1	1	1	1	1	1	1	1	1	1	1	1	1	1	1	1	1	1	1	1	1	1	1	1	1	1	1	1	1	1	1	1	1	1	1	1	1	1	1	1	1	1	1	1	1	1	1	0.870595	0.657556	0.534294	0.61672	0.799547	0.888504	0.98526	1	1	1	1	1	1	1	1	1	1	1	1	1	1	1	1	1	1	1	1	1	1	1	1	1	1	1	1	1	1	1	1	1	1	1	1	1	1	1	1	0.929408	0.753388	0.586505	0.556524	0.723205	0.992455	1	1	1	1	1	1	0.993491	0.763653	0.644235	0.54343	0.499986	0.542782	0.669402	0.836516	0.970365	1	1	1	1	1	1	1	1	1	1	1	1	1	1	1	1	1	1	1	1	1	1	1	1	1	1	1	1	1	1	1	1	1	1	1	1	1	1	1	1	1	1	1	1	1	1	1	1	1	1	1	0.946811	0.738125	0.539881	0.568594	0.723664	0.890066	0.958214	1	1	1	1	1	1	1	1	1	1	1	1	1	1	1	1	1	1	1	1	1	1	1	1	1	1	1	1	1	1	1	1	1	1	1	1	1	1	1	1	1	0.99367	0.829117	0.673534	0.66867	0.848074	1	1	1	1	1	1	1	1	0.932003	0.821521	0.680787	0.555522	0.500131	0.550487	0.696621	0.875905	1	1	1	1	1	1	1	1	1	1	1	1	1	1	1	1	1	1	1	1	1	1	1	1	1	1	1	1	1	1	1	1	1	1	1	1	1	1	1	1	1	1	1	1	1	1	1	1	1	1	1	0.828643	0.619837	0.536363	0.649624	0.850167	0.928069	1	1	1	1	1	1	1	1	1	1	1	1	1	1	1	1	1	1	1	1	1	1	1	1	1	1	1	1	1	1	1	1	1	1	1	1	1	1	1	1	1	1	0.905217	0.778219	0.674027	0.702773	0.899239	1	1	1	1	1	1	1	1	1	0.990985	0.843535	0.683938	0.546649	0.50103	0.580948	0.754848	0.931282	1	1	1	1	1	1	1	1	1	1	1	1	1	1	1	1	1	1	1	1	1	1	1	1	1	1	1	1	1	1	1	1	1	1	1	1	1	1	1	1	1	1	1	1	1	1	1	1	1	0.915868	0.698385	0.520562	0.587957	0.766653	0.926816	0.987423	1	1	1	1	1	1	1	1	1	1	1	1	1	1	1	1	1	1	1	1	1	1	1	1	1	1	1	1	1	1	1	1	1	1	1	1	1	1	1	1	1	1	0.873534	0.658739	0.512411	0.55301	0.857155	1	1	1	1	1	1	1	1	1	1	0.982332	0.827977	0.651317	0.52162	0.515041	0.644958	0.84318	0.993217	1	1	1	1	1	1	1	1	1	1	1	1	1	1	1	1	1	1	1	1	1	1	1	1	1	1	1	1	1	1	1	1	1	1	1	1	1	1	1	1	1	1	1	1	1	1	1	1	0.793244	0.591832	0.544586	0.682105	0.892939	0.953253	1	1	1	1	1	1	1	1	1	1	1	1	1	1	1	1	1	1	1	1	1	1	1	1	1	1	1	1	1	1	1	1	1	1	1	1	1	1	1	1	1	1	1	0.847281	0.628876	0.503713	0.560932	0.754865	1	1	1	1	1	1	1	1	1	1	1	0.957356	0.772301	0.590219	0.500718	0.564457	0.748891	0.938785	1	1	1	1	1	1	1	1	1	1	1	1	1	1	1	1	1	1	1	1	1	1	1	1	1	1	1	1	1	1	1	1	1	1	1	1	1	1	1	1	1	1	1	1	1	1	1	0.898094	0.675684	0.517765	0.604553	0.797694	0.949489	1	1	1	1	1	1	1	1	1	1	1	1	1	1	1	1	1	1	1	1	1	1	1	1	1	1	1	1	1	1	1	1	1	1	1	1	1	1	1	1	1	1	1	1	0.830016	0.610773	0.500785	0.57899	0.785867	1	1	1	1	1	1	1	1	1	1	1	1	0.87654	0.678076	0.52501	0.518515	0.668602	0.87789	1	1	1	1	1	1	1	1	1	1	1	1	1	1	1	1	1	1	1	1	1	1	1	1	1	1	1	1	1	1	1	1	1	1	1	1	1	1	1	1	1	1	1	1	1	1	0.984987	0.769728	0.572968	0.556509	0.702937	0.916822	0.951397	1	1	1	1	1	1	1	1	1	1	1	1	1	1	1	1	1	1	1	1	1	1	1	1	1	1	1	1	1	1	1	1	1	1	1	1	1	1	1	1	1	1	1	1	0.823684	0.604329	0.500243	0.586248	0.797775	1	1	1	1	1	1	1	1	1	1	1	1	0.966292	0.761682	0.569057	0.501256	0.609194	0.822739	0.995393	1	1	1	1	1	1	1	1	1	1	1	1	1	1	1	1	1	1	1	1	1	1	1	1	1	1	1	1	1	1	1	1	1	1	1	1	1	1	1	1	1	1	1	1	1	0.920922	0.660575	0.518063	0.625995	0.818607	0.960791	1	1	1	1	1	1	1	1	1	1	1	1	1	1	1	1	1	1	1	1	1	1	1	1	1	1	1	1	1	1	1	1	1	1	1	1	1	1	1	1	1	1	1	1	1	0.829099	0.609778	0.500641	0.580496	0.789719	0.997008	1	1	1	1	1	1	1	1	1	1	1	1	0.828309	0.616417	0.501948	0.569408	0.774268	0.968878	1	1	1	1	1	1	1	1	1	1	1	1	1	1	1	1	1	1	1	1	1	1	1	1	1	1	1	1	1	1	1	1	1	1	1	1	1	1	1	1	1	1	1	1	0.995846	0.869189	0.726472	0.653474	0.721822	0.930661	0.970403	1	1	1	1	1	1	1	1	1	1	1	1	1	1	1	1	1	1	1	1	1	1	1	1	1	1	1	1	1	1	1	1	1	1	1	1	1	1	1	1	1	1	1	1	1	0.847073	0.628408	0.503514	0.562596	0.761316	0.976955	1	1	1	1	1	1	1	1	1	1	1	1	0.871862	0.655233	0.510183	0.545579	0.73829	0.944096	1	1	1	1	1	1	1	1	1	1	1	1	1	1	1	1	1	1	1	1	1	1	1	1	1	1	1	1	1	1	1	1	1	1	1	1	1	1	1	1	0.994183	0.968545	0.984413	0.924358	0.860023	0.734722	0.68667	0.759394	0.906881	0.951994	1	1	1	1	1	1	1	1	1	1	1	1	1	1	1	1	1	1	1	1	1	1	1	1	1	1	1	1	1	1	1	1	1	1	1	1	1	1	1	1	1	1	1	1	1	1	0.877282	0.662333	0.51337	0.536868	0.713771	0.937713	1	1	1	1	1	1	1	1	1	1	1	1	0.894981	0.679604	0.518017	0.533533	0.716883	0.928122	1	1	1	1	1	1	1	1	1	1	1	1	1	1	1	1	1	1	1	1	1	1	1	1	1	1	1	1	1	1	1	1	1	1	1	1	0.984835	0.944799	0.900131	0.857653	0.817428	0.858104	0.82805	0.782058	0.670343	0.581852	0.614137	0.778065	0.960657	1	1	1	1	1	1	1	1	1	1	1	1	1	1	1	1	1	1	1	1	1	1	1	1	1	1	1	1	1	1	1	1	1	1	1	1	1	1	1	1	1	1	1	1	1	1	1	0.918253	0.713671	0.537335	0.511654	0.650409	0.86699	1	1	1	1	1	1	1	1	1	1	1	1	0.902073	0.687515	0.520948	0.530156	0.710134	0.922974	1	1	1	1	1	1	1	1	1	1	1	1	1	1	1	1	1	1	1	1	1	1	1	1	1	1	1	1	1	1	1	1	1	0.991875	0.939047	0.876421	0.812002	0.747583	0.690121	0.642501	0.604005	0.727544	0.690511	0.641877	0.532973	0.482017	0.561657	0.757026	0.94093	1	1	1	1	1	1	1	1	1	1	1	1	1	1	1	1	1	1	1	1	1	1	1	1	1	1	1	1	1	1	1	1	1	1	1	1	1	1	1	1	1	1	1	1	1	1	1	0.964091	0.781899	0.583437	0.499961	0.580586	0.767943	0.966015	1	1	1	1	1	1	1	1	1	1	1	0.89519	0.679062	0.51765	0.534139	0.718062	0.929071	1	1	1	1	1	1	1	1	1	1	1	1	1	1	1	1	1	1	1	1	1	0.999672	0.98719	0.97933	0.979535	0.987858	0.999829	1	1	1	1	1	0.916643	0.83684	0.748427	0.668334	0.603788	0.556357	0.525227	0.507895	0.592752	0.753406	0.707548	0.645971	0.541988	0.486151	0.55651	0.722754	0.878333	1	1	1	1	1	1	1	1	1	1	1	1	1	1	1	1	1	1	1	1	1	1	1	1	1	1	1	1	1	1	1	1	1	1	1	1	1	1	1	1	1	1	1	1	1	1	1	1	0.860182	0.656643	0.517095	0.522327	0.660763	0.85938	0.994638	1	1	1	1	1	1	1	1	1	1	0.948893	0.655044	0.50983	0.546426	0.740108	0.945677	1	1	1	1	1	1	1	1	1	1	1	1	1	1	1	1	1	1	0.961118	0.909778	0.861177	0.82255	0.794867	0.780758	0.78133	0.796274	0.823265	0.890059	0.979058	0.953125	0.937552	0.919555	0.815083	0.635348	0.563177	0.518852	0.500929	0.50406	0.521024	0.637218	0.84256	0.9417	0.877577	0.808628	0.696565	0.60561	0.592145	0.652664	0.828257	0.937792	1	1	1	1	1	1	1	1	1	1	1	1	1	1	1	1	1	1	1	1	1	1	1	1	1	1	1	1	1	1	1	1	1	1	1	1	1	1	1	1	1	1	1	1	1	1	1	0.936295	0.754888	0.57575	0.500093	0.560769	0.715368	0.903829	1	1	1	1	1	1	1	1	1	1	0.998654	0.617369	0.501859	0.569967	0.775622	0.970153	1	1	1	1	1	1	1	1	1	1	1	1	1	1	1	1	1	0.959529	0.882683	0.708228	0.647778	0.606341	0.581579	0.570353	0.57086	0.583188	0.642554	0.767221	0.775175	0.733846	0.689974	0.698813	0.687749	0.582627	0.501074	0.524275	0.56887	0.623436	0.816801	0.953171	1	1	1	1	0.923224	0.780693	0.656563	0.645607	0.700503	0.85237	0.995842	1	1	1	1	1	1	1	1	1	1	1	1	1	1	1	1	1	1	1	1	1	1	1	1	1	1	1	1	1	1	1	1	1	1	1	1	1	1	1	1	1	1	1	1	1	1	0.999572	0.865464	0.678326	0.53583	0.50345	0.584119	0.729725	0.887127	0.997982	1	1	1	1	1	1	1	1	1	0.655488	0.500974	0.60794	0.822119	0.995736	1	1	1	1	1	1	1	0.986228	0.954202	0.926092	0.909777	0.907206	0.916937	1	0.986276	0.967256	0.959529	0.734641	0.725947	0.643671	0.510326	0.500761	0.500405	0.50216	0.501977	0.500301	0.626558	0.642823	0.588061	0.510452	0.45035	0.518223	0.60877	0.712316	0.749633	0.801897	0.7966	0.930117	1	1	1	1	1	1	1	0.923284	0.785881	0.586528	0.56942	0.748868	0.933501	1	1	1	1	1	1	1	1	1	1	1	1	1	1	1	1	1	1	1	1	1	1	1	1	1	1	1	1	1	1	1	1	1	1	1	1	1	1	1	1	1	1	1	1	1	1	1	0.956988	0.807968	0.636318	0.522001	0.50584	0.579659	0.702998	0.829291	0.925339	1	1	1	1	1	1	1	0.965288	0.68521	0.545798	0.662958	0.874137	1	1	1	1	1	1	0.943631	0.876342	0.812334	0.757132	0.718323	0.698513	0.697721	0.83316	0.834267	0.779847	0.726975	0.734642	0.520596	0.60246	0.67632	0.664515	0.61162	0.604084	0.620244	0.618881	0.639034	0.726799	0.657977	0.53418	0.412087	0.348538	0.457595	0.642602	0.854747	0.990231	1	1	1	1	1	1	1	1	1	1	1	0.885801	0.556043	0.515464	0.651682	0.854134	0.9998	1	1	1	1	1	1	1	1	1	1	1	1	1	1	1	1	1	1	1	1	1	1	1	1	1	1	1	1	1	1	1	1	1	1	1	1	1	1	1	1	1	1	1	1	1	1	1	0.929505	0.780954	0.62612	0.52441	0.501865	0.550382	0.641217	0.742531	0.831354	1	1	1	1	1	0.967474	0.828197	0.717975	0.651364	0.735819	0.930813	1	1	1	1	0.954575	0.866032	0.762308	0.670988	0.603698	0.560455	0.536854	0.527444	0.620816	0.690865	0.638443	0.551611	0.47177	0.520596	0.421578	0.591364	0.775693	0.898186	0.904471	0.84551	0.835615	0.862635	0.929868	0.9253	0.80526	0.62662	0.462608	0.391647	0.512126	0.75086	0.993226	1	1	1	1	1	1	1	1	1	1	1	1	0.958214	0.609453	0.500151	0.574296	0.764902	0.94989	1	1	1	1	1	1	1	1	1	1	1	1	1	1	1	1	1	1	1	1	1	1	1	1	1	1	1	1	1	1	1	1	1	1	1	1	1	1	1	1	1	1	1	1	1	1	1	1	0.922267	0.786112	0.645806	0.544333	0.501583	0.513612	0.562666	0.627966	0.798005	0.965761	1	0.968849	0.907464	0.799154	0.712897	0.678291	0.751385	0.847404	0.981983	1	1	1	0.921071	0.800344	0.675748	0.578357	0.521413	0.500942	0.503309	0.513706	0.520677	0.688342	0.673151	0.568656	0.437144	0.358082	0.421579	0.455222	0.675083	0.912666	1	1	1	1	1	1	1	0.980711	0.785871	0.597192	0.510261	0.610673	0.865528	1	1	1	1	1	1	1	1	1	1	1	1	1	1	0.6665	0.519335	0.524238	0.681538	0.887908	1	1	1	1	1	1	1	1	1	1	1	1	1	1	1	1	1	1	1	1	1	1	1	1	1	1	1	1	1	1	1	1	1	1	1	1	1	1	1	1	1	1	1	1	1	1	1	1	1	0.936238	0.822747	0.69695	0.592955	0.527479	0.501417	0.505449	0.527053	0.714699	0.809353	0.756727	0.692937	0.610605	0.584534	0.674111	0.790028	0.956155	1	1	1	0.906334	0.763615	0.625302	0.532163	0.500096	0.519659	0.568231	0.631767	0.686609	0.82878	0.889383	0.809319	0.649173	0.473083	0.379928	0.455219	0.591868	0.802457	1	1	1	1	1	1	1	1	1	0.924543	0.762687	0.704034	0.802904	0.965919	1	1	1	1	1	1	1	1	1	1	1	1	1	0.984287	0.751273	0.562851	0.502092	0.613064	0.823821	0.992071	1	1	1	1	1	1	1	1	1	1	1	1	1	1	1	1	1	1	1	1	1	1	1	1	1	1	1	1	1	1	1	1	1	1	1	1	1	1	1	1	1	1	1	1	1	1	1	1	1	0.968321	0.883962	0.779919	0.681969	0.604481	0.551328	0.520329	0.591307	0.687711	0.625613	0.57007	0.556902	0.6104	0.692998	0.906274	1	1	1	0.907442	0.755839	0.606297	0.515192	0.505963	0.565527	0.683271	0.785025	0.855343	0.985564	1	1	0.991099	0.79717	0.572338	0.480974	0.59189	0.74167	0.92164	1	1	1	1	1	1	1	1	1	1	0.942002	0.851574	0.925938	1	1	1	1	1	1	1	1	1	1	1	1	1	1	0.986403	0.827434	0.61878	0.502838	0.56241	0.75874	0.953832	1	1	1	1	1	1	1	1	1	1	1	1	1	1	1	1	1	1	1	1	1	1	1	1	1	1	1	1	1	1	1	1	1	1	1	1	1	1	1	1	1	1	1	1	1	1	1	1	1	1	1	0.953083	0.88357	0.809484	0.738753	0.681539	0.731294	0.769395	0.736779	0.692374	0.666357	0.689982	0.762161	0.912306	1	1	1	0.901331	0.751508	0.654163	0.658136	0.744613	0.868927	0.98317	0.998214	1	1	1	1	1	0.908226	0.709875	0.642974	0.741558	0.873559	1	1	1	1	1	1	1	1	1	0.986825	1	1	0.956353	1	1	1	1	1	1	1	1	1	1	1	1	1	1	1	1	0.887042	0.676385	0.519088	0.529209	0.701785	0.911506	1	1	1	1	1	1	1	1	1	1	1	1	1	1	1	1	1	1	1	1	1	1	1	1	1	1	1	1	1	1	1	1	1	1	1	1	1	1	1	1	1	1	1	1	1	1	1	1	1	1	1	1	1	0.980906	0.937952	0.955737	0.954566	0.930322	0.860753	0.816823	0.734308	0.705147	0.77035	0.898179	0.964727	0.96506	0.909464	0.741276	0.692003	0.740585	0.826614	0.961552	1	1	1	1	1	1	1	1	1	0.859169	0.773281	0.873103	0.883835	1	1	1	1	1	1	1	1	1	0.981828	1	1	1	1	1	1	1	1	1	1	1	1	1	1	1	1	1	1	1	0.929792	0.728172	0.54298	0.510806	0.656723	0.873706	1	1	1	1	1	1	1	1	1	1	1	1	1	1	1	1	1	1	1	1	1	1	1	1	1	1	1	1	1	1	1	1	1	1	1	1	1	1	1	1	1	1	1	1	1	1	1	1	1	1	1	1	1	1	1	0.997764	0.973725	0.998027	0.89211	0.853169	0.724468	0.637296	0.640378	0.759064	0.829909	0.767681	0.763521	0.692275	0.660258	0.747637	0.928314	1	1	1	1	1	1	1	1	1	1	0.877101	0.776575	0.882141	0.879981	1	1	1	1	1	1	1	1	1	0.972665	0.987569	1	1	1	1	1	1	1	1	1	1	1	1	1	1	1	1	1	1	0.960024	0.770307	0.567744	0.502558	0.62422	0.843693	1	1	1	1	1	1	1	1	1	1	1	1	1	1	1	1	1	1	1	1	1	1	1	1	1	1	1	1	1	1	1	1	1	1	1	1	1	1	1	1	1	1	1	1	1	1	1	1	1	1	1	1	1	0.961476	0.901027	0.845285	0.898796	0.975037	0.947433	0.82426	0.679512	0.560814	0.55276	0.620856	0.665873	0.677084	0.63784	0.59742	0.622537	0.771643	0.936432	1	1	1	1	1	1	1	1	1	0.998795	0.892417	0.792183	0.873877	0.843243	0.997892	1	1	1	1	1	1	1	1	0.965245	0.972272	0.997396	0.980199	1	1	1	1	1	1	1	1	1	1	1	1	1	1	1	1	0.98	0.800789	0.588507	0.500056	0.602811	0.822346	1	1	1	1	1	1	1	1	1	1	1	1	1	1	1	1	1	1	1	1	1	1	1	1	1	1	1	1	1	1	1	1	1	1	1	1	1	1	1	1	1	1	1	1	1	1	1	1	1	1	1	0.987027	0.900915	0.805342	0.737584	0.694963	0.683759	0.87454	0.870573	0.755884	0.597188	0.453164	0.447707	0.530303	0.615724	0.66569	0.634851	0.58875	0.605028	0.769342	0.948182	1	1	1	1	1	1	1	1	1	0.991355	0.879416	0.762224	0.818076	0.885273	1	1	1	1	1	1	1	1	1	0.969786	1	1	0.999243	1	1	1	1	1	1	1	1	1	1	1	1	1	1	1	1	0.990885	0.818926	0.601689	0.500103	0.591097	0.809892	0.998631	1	1	1	1	1	1	1	1	1	1	1	1	1	1	1	1	1	1	1	1	1	1	1	1	1	1	1	1	1	1	1	1	1	1	1	1	1	1	1	1	1	1	1	1	1	1	1	1	1	0.979416	0.872191	0.758239	0.638128	0.584215	0.574051	0.617917	0.831751	0.83038	0.686456	0.519897	0.410956	0.465282	0.591397	0.702431	0.765754	0.760116	0.686693	0.621721	0.745115	0.910857	1	1	1	1	1	1	1	1	1	0.999203	0.889817	0.785614	0.878025	0.874488	1	1	1	1	1	1	1	1	1	0.976587	1	1	0.985935	1	1	1	1	1	1	1	1	1	1	1	1	1	1	1	1	0.993838	0.824065	0.605721	0.500276	0.58778	0.806188	0.997421	1	1	1	1	1	1	1	1	1	1	1	1	1	1	1	1	1	1	1	1	1	1	1	1	1	1	1	1	1	1	1	1	1	1	1	1	1	1	1	1	1	1	1	1	1	1	1	1	1	0.885779	0.730882	0.633239	0.574488	0.578791	0.655056	0.771725	0.925014	0.827935	0.759374	0.60242	0.501699	0.557046	0.734869	0.860687	0.915771	0.897685	0.757935	0.625318	0.697898	0.884549	1	1	1	1	1	1	1	1	1	1	0.882348	0.77726	0.873609	0.84274	0.995842	1	1	1	1	1	1	1	1	0.99614	1	0.935388	0.895982	1	1	1	1	1	1	1	1	1	1	1	1	1	1	1	1	0.989328	0.81633	0.599803	0.499979	0.592659	0.811547	0.999203	1	1	1	1	1	1	1	1	1	1	1	1	1	1	1	1	1	1	1	1	1	1	1	1	1	1	1	1	1	1	1	1	1	1	1	1	1	1	1	1	1	1	1	1	1	1	1	1	0.932179	0.791054	0.646623	0.592588	0.605239	0.688542	0.830044	1	1	0.920087	0.824196	0.720035	0.64872	0.687141	0.8763	0.985224	1	0.985913	0.785693	0.692289	0.65166	0.696897	0.826988	0.986095	1	1	1	1	1	1	1	0.997575	0.853589	0.749156	0.8425	0.676623	0.871302	1	1	1	1	1	1	1	1	1	0.96994	0.84087	0.807658	0.98963	1	1	1	1	1	1	1	1	1	1	1	1	1	1	1	0.976621	0.795633	0.584883	0.500347	0.606172	0.825794	1	1	1	1	1	1	1	1	1	1	1	1	1	1	1	1	1	1	1	1	1	1	1	1	1	1	1	1	1	1	1	1	1	1	1	1	1	1	1	1	1	1	1	1	1	1	1	1	1	0.862264	0.686723	0.590631	0.592644	0.614003	0.759412	1	1	1	1	0.912567	0.754563	0.706822	0.825245	0.943199	1	1	1	0.893224	0.685013	0.549485	0.499978	0.546224	0.686741	0.825891	0.920771	0.978188	1	1	1	1	0.88422	0.653181	0.579833	0.676566	0.5417	0.743982	0.981932	1	1	1	1	1	1	1	0.991703	0.87038	0.778068	0.781396	0.976135	1	1	1	1	1	1	1	1	1	1	1	1	1	1	1	0.954227	0.762221	0.562908	0.503609	0.629634	0.848914	1	1	1	1	1	1	1	1	1	1	1	1	1	1	1	1	1	1	1	1	1	1	1	1	1	1	1	1	1	1	1	1	1	1	1	1	1	1	1	1	1	1	1	1	1	1	1	1	0.966162	0.809393	0.613768	0.570397	0.656751	0.850894	0.933891	1	1	1	1	1	0.889477	0.809263	0.862332	0.977431	1	1	1	0.961236	0.834937	0.67674	0.55215	0.50077	0.524753	0.598744	0.709101	0.780861	0.909074	1	1	0.947694	0.763019	0.551948	0.450933	0.541657	0.424681	0.637906	0.873806	1	1	1	1	1	1	1	0.859275	0.673665	0.564277	0.662542	0.883346	1	1	1	1	1	1	1	1	1	1	1	1	1	1	1	0.920487	0.717199	0.537555	0.513608	0.664814	0.880632	1	1	1	1	1	1	1	1	1	1	1	1	1	1	1	1	1	1	1	1	1	1	1	1	1	1	1	1	1	1	1	1	1	1	1	1	1	1	1	1	1	1	1	1	1	1	1	1	0.931718	0.820069	0.74215	0.73654	0.846402	0.998448	1	1	1	1	1	1	0.852591	0.736026	0.790206	0.924963	0.933646	1	1	1	0.958997	0.840298	0.695656	0.576558	0.511832	0.501969	0.530059	0.572838	0.61945	0.744466	0.835509	0.766903	0.622393	0.460301	0.375861	0.42468	0.420994	0.573511	0.742936	0.853927	0.854947	0.776926	0.802092	0.916316	0.942075	0.850628	0.681906	0.515593	0.443264	0.567039	0.824177	1	1	1	1	1	1	1	1	1	1	1	1	1	1	1	0.872653	0.662587	0.514523	0.534926	0.712522	0.919639	1	1	1	1	1	1	1	1	1	1	1	1	1	1	1	1	1	1	1	1	1	1	1	1	1	1	1	1	1	1	1	1	1	1	1	1	1	1	1	1	1	1	1	1	1	1	1	1	1	0.867282	0.724312	0.706007	0.83383	1	1	1	1	1	1	1	0.860171	0.661781	0.739179	0.874064	0.964093	1	1	1	1	0.970662	0.872354	0.746104	0.634205	0.555862	0.514459	0.500695	0.501241	0.50458	0.661423	0.663818	0.573502	0.453549	0.375574	0.420994	0.550718	0.612664	0.65855	0.607881	0.548927	0.576665	0.593108	0.643305	0.743396	0.675682	0.