# vtk DataFile Version 2.0
output6.vtk
ASCII 
DATASET STRUCTURED_GRID
DIMENSIONS 120 120 1
POINTS 14400 float
0 0 1
0 1 1
0 2 1
0 3 1
0 4 1
0 5 1
0 6 1
0 7 1
0 8 1
0 9 1
0 10 1
0 11 1
0 12 1
0 13 1
0 14 1
0 15 1
0 16 1
0 17 1
0 18 1
0 19 1
0 20 1
0 21 1
0 22 1
0 23 1
0 24 1
0 25 1
0 26 1
0 27 1
0 28 1
0 29 1
0 30 1
0 31 1
0 32 1
0 33 1
0 34 1
0 35 1
0 36 1
0 37 1
0 38 1
0 39 1
0 40 1
0 41 1
0 42 1
0 43 1
0 44 1
0 45 1
0 46 1
0 47 1
0 48 1
0 49 1
0 50 1
0 51 1
0 52 1
0 53 1
0 54 1
0 55 1
0 56 1
0 57 1
0 58 1
0 59 1
0 60 1
0 61 1
0 62 1
0 63 1
0 64 1
0 65 1
0 66 1
0 67 1
0 68 1
0 69 1
0 70 1
0 71 1
0 72 1
0 73 1
0 74 1
0 75 1
0 76 1
0 77 1
0 78 1
0 79 1
0 80 1
0 81 1
0 82 1
0 83 1
0 84 1
0 85 1
0 86 1
0 87 1
0 88 1
0 89 1
0 90 1
0 91 1
0 92 1
0 93 1
0 94 1
0 95 1
0 96 1
0 97 1
0 98 1
0 99 1
0 100 1
0 101 1
0 102 1
0 103 1
0 104 1
0 105 1
0 106 1
0 107 1
0 108 1
0 109 1
0 110 1
0 111 1
0 112 1
0 113 1
0 114 1
0 115 1
0 116 1
0 117 1
0 118 1
0 119 1
1 0 1
1 1 1
1 2 1
1 3 1
1 4 1
1 5 1
1 6 1
1 7 1
1 8 1
1 9 1
1 10 1
1 11 1
1 12 1
1 13 1
1 14 1
1 15 1
1 16 1
1 17 1
1 18 1
1 19 1
1 20 1
1 21 1
1 22 1
1 23 1
1 24 1
1 25 1
1 26 1
1 27 1
1 28 1
1 29 1
1 30 1
1 31 1
1 32 1
1 33 1
1 34 1
1 35 1
1 36 1
1 37 1
1 38 1
1 39 1
1 40 1
1 41 1
1 42 1
1 43 1
1 44 1
1 45 1
1 46 1
1 47 1
1 48 1
1 49 1
1 50 1
1 51 1
1 52 1
1 53 1
1 54 1
1 55 1
1 56 1
1 57 1
1 58 1
1 59 1
1 60 1
1 61 1
1 62 1
1 63 1
1 64 1
1 65 1
1 66 1
1 67 1
1 68 1
1 69 1
1 70 1
1 71 1
1 72 1
1 73 1
1 74 1
1 75 1
1 76 1
1 77 1
1 78 1
1 79 1
1 80 1
1 81 1
1 82 1
1 83 1
1 84 1
1 85 1
1 86 1
1 87 1
1 88 1
1 89 1
1 90 1
1 91 1
1 92 1
1 93 1
1 94 1
1 95 1
1 96 1
1 97 1
1 98 1
1 99 1
1 100 1
1 101 1
1 102 1
1 103 1
1 104 1
1 105 1
1 106 1
1 107 1
1 108 1
1 109 1
1 110 1
1 111 1
1 112 1
1 113 1
1 114 1
1 115 1
1 116 1
1 117 1
1 118 1
1 119 1
2 0 1
2 1 1
2 2 1
2 3 1
2 4 1
2 5 1
2 6 1
2 7 1
2 8 1
2 9 1
2 10 1
2 11 1
2 12 1
2 13 1
2 14 1
2 15 1
2 16 1
2 17 1
2 18 1
2 19 1
2 20 1
2 21 1
2 22 1
2 23 1
2 24 1
2 25 1
2 26 1
2 27 1
2 28 1
2 29 1
2 30 1
2 31 1
2 32 1
2 33 1
2 34 1
2 35 1
2 36 1
2 37 1
2 38 1
2 39 1
2 40 1
2 41 1
2 42 1
2 43 1
2 44 1
2 45 1
2 46 1
2 47 1
2 48 1
2 49 1
2 50 1
2 51 1
2 52 1
2 53 1
2 54 1
2 55 1
2 56 1
2 57 1
2 58 1
2 59 1
2 60 1
2 61 1
2 62 1
2 63 1
2 64 1
2 65 1
2 66 1
2 67 1
2 68 1
2 69 1
2 70 1
2 71 1
2 72 1
2 73 1
2 74 1
2 75 1
2 76 1
2 77 1
2 78 1
2 79 1
2 80 1
2 81 1
2 82 1
2 83 1
2 84 1
2 85 1
2 86 1
2 87 1
2 88 1
2 89 1
2 90 1
2 91 1
2 92 1
2 93 1
2 94 1
2 95 1
2 96 1
2 97 1
2 98 1
2 99 1
2 100 1
2 101 1
2 102 1
2 103 1
2 104 1
2 105 1
2 106 1
2 107 1
2 108 1
2 109 1
2 110 1
2 111 1
2 112 1
2 113 1
2 114 1
2 115 1
2 116 1
2 117 1
2 118 1
2 119 1
3 0 1
3 1 1
3 2 1
3 3 1
3 4 1
3 5 1
3 6 1
3 7 1
3 8 1
3 9 1
3 10 1
3 11 1
3 12 1
3 13 1
3 14 1
3 15 1
3 16 1
3 17 1
3 18 1
3 19 1
3 20 1
3 21 1
3 22 1
3 23 1
3 24 1
3 25 1
3 26 1
3 27 1
3 28 1
3 29 1
3 30 1
3 31 1
3 32 1
3 33 1
3 34 1
3 35 1
3 36 1
3 37 1
3 38 1
3 39 1
3 40 1
3 41 1
3 42 1
3 43 1
3 44 1
3 45 1
3 46 1
3 47 1
3 48 1
3 49 1
3 50 1
3 51 1
3 52 1
3 53 1
3 54 1
3 55 1
3 56 1
3 57 1
3 58 1
3 59 1
3 60 1
3 61 1
3 62 1
3 63 1
3 64 1
3 65 1
3 66 1
3 67 1
3 68 1
3 69 1
3 70 1
3 71 1
3 72 1
3 73 1
3 74 1
3 75 1
3 76 1
3 77 1
3 78 1
3 79 1
3 80 1
3 81 1
3 82 1
3 83 1
3 84 1
3 85 1
3 86 1
3 87 1
3 88 1
3 89 1
3 90 1
3 91 1
3 92 1
3 93 1
3 94 1
3 95 1
3 96 1
3 97 1
3 98 1
3 99 1
3 100 1
3 101 1
3 102 1
3 103 1
3 104 1
3 105 1
3 106 1
3 107 1
3 108 1
3 109 1
3 110 1
3 111 1
3 112 1
3 113 1
3 114 1
3 115 1
3 116 1
3 117 1
3 118 1
3 119 1
4 0 1
4 1 1
4 2 1
4 3 1
4 4 1
4 5 1
4 6 1
4 7 1
4 8 1
4 9 1
4 10 1
4 11 1
4 12 1
4 13 1
4 14 1
4 15 1
4 16 1
4 17 1
4 18 1
4 19 1
4 20 1
4 21 1
4 22 1
4 23 1
4 24 1
4 25 1
4 26 1
4 27 1
4 28 1
4 29 1
4 30 1
4 31 1
4 32 1
4 33 1
4 34 1
4 35 1
4 36 1
4 37 1
4 38 1
4 39 1
4 40 1
4 41 1
4 42 1
4 43 1
4 44 1
4 45 1
4 46 1
4 47 1
4 48 1
4 49 1
4 50 1
4 51 1
4 52 1
4 53 1
4 54 1
4 55 1
4 56 1
4 57 1
4 58 1
4 59 1
4 60 1
4 61 1
4 62 1
4 63 1
4 64 1
4 65 1
4 66 1
4 67 1
4 68 1
4 69 1
4 70 1
4 71 1
4 72 1
4 73 1
4 74 1
4 75 1
4 76 1
4 77 1
4 78 1
4 79 1
4 80 1
4 81 1
4 82 1
4 83 1
4 84 1
4 85 1
4 86 1
4 87 1
4 88 1
4 89 1
4 90 1
4 91 1
4 92 1
4 93 1
4 94 1
4 95 1
4 96 1
4 97 1
4 98 1
4 99 1
4 100 1
4 101 1
4 102 1
4 103 1
4 104 1
4 105 1
4 106 1
4 107 1
4 108 1
4 109 1
4 110 1
4 111 1
4 112 1
4 113 1
4 114 1
4 115 1
4 116 1
4 117 1
4 118 1
4 119 1
5 0 1
5 1 1
5 2 1
5 3 1
5 4 1
5 5 1
5 6 1
5 7 1
5 8 1
5 9 1
5 10 1
5 11 1
5 12 1
5 13 1
5 14 1
5 15 1
5 16 1
5 17 1
5 18 1
5 19 1
5 20 1
5 21 1
5 22 1
5 23 1
5 24 1
5 25 1
5 26 1
5 27 1
5 28 1
5 29 1
5 30 1
5 31 1
5 32 1
5 33 1
5 34 1
5 35 1
5 36 1
5 37 1
5 38 1
5 39 1
5 40 1
5 41 1
5 42 1
5 43 1
5 44 1
5 45 1
5 46 1
5 47 1
5 48 1
5 49 1
5 50 1
5 51 1
5 52 1
5 53 1
5 54 1
5 55 1
5 56 1
5 57 1
5 58 1
5 59 1
5 60 1
5 61 1
5 62 1
5 63 1
5 64 1
5 65 1
5 66 1
5 67 1
5 68 1
5 69 1
5 70 1
5 71 1
5 72 1
5 73 1
5 74 1
5 75 1
5 76 1
5 77 1
5 78 1
5 79 1
5 80 1
5 81 1
5 82 1
5 83 1
5 84 1
5 85 1
5 86 1
5 87 1
5 88 1
5 89 1
5 90 1
5 91 1
5 92 1
5 93 1
5 94 1
5 95 1
5 96 1
5 97 1
5 98 1
5 99 1
5 100 1
5 101 1
5 102 1
5 103 1
5 104 1
5 105 1
5 106 1
5 107 1
5 108 1
5 109 1
5 110 1
5 111 1
5 112 1
5 113 1
5 114 1
5 115 1
5 116 1
5 117 1
5 118 1
5 119 1
6 0 1
6 1 1
6 2 1
6 3 1
6 4 1
6 5 1
6 6 1
6 7 1
6 8 1
6 9 1
6 10 1
6 11 1
6 12 1
6 13 1
6 14 1
6 15 1
6 16 1
6 17 1
6 18 1
6 19 1
6 20 1
6 21 1
6 22 1
6 23 1
6 24 1
6 25 1
6 26 1
6 27 1
6 28 1
6 29 1
6 30 1
6 31 1
6 32 1
6 33 1
6 34 1
6 35 1
6 36 1
6 37 1
6 38 1
6 39 1
6 40 1
6 41 1
6 42 1
6 43 1
6 44 1
6 45 1
6 46 1
6 47 1
6 48 1
6 49 1
6 50 1
6 51 1
6 52 1
6 53 1
6 54 1
6 55 1
6 56 1
6 57 1
6 58 1
6 59 1
6 60 1
6 61 1
6 62 1
6 63 1
6 64 1
6 65 1
6 66 1
6 67 1
6 68 1
6 69 1
6 70 1
6 71 1
6 72 1
6 73 1
6 74 1
6 75 1
6 76 1
6 77 1
6 78 1
6 79 1
6 80 1
6 81 1
6 82 1
6 83 1
6 84 1
6 85 1
6 86 1
6 87 1
6 88 1
6 89 1
6 90 1
6 91 1
6 92 1
6 93 1
6 94 1
6 95 1
6 96 1
6 97 1
6 98 1
6 99 1
6 100 1
6 101 1
6 102 1
6 103 1
6 104 1
6 105 1
6 106 1
6 107 1
6 108 1
6 109 1
6 110 1
6 111 1
6 112 1
6 113 1
6 114 1
6 115 1
6 116 1
6 117 1
6 118 1
6 119 1
7 0 1
7 1 1
7 2 1
7 3 1
7 4 1
7 5 1
7 6 1
7 7 1
7 8 1
7 9 1
7 10 1
7 11 1
7 12 1
7 13 1
7 14 1
7 15 1
7 16 1
7 17 1
7 18 1
7 19 1
7 20 1
7 21 1
7 22 1
7 23 1
7 24 1
7 25 1
7 26 1
7 27 1
7 28 1
7 29 1
7 30 1
7 31 1
7 32 1
7 33 1
7 34 1
7 35 1
7 36 1
7 37 1
7 38 1
7 39 1
7 40 1
7 41 1
7 42 1
7 43 1
7 44 1
7 45 1
7 46 1
7 47 1
7 48 1
7 49 1
7 50 1
7 51 1
7 52 1
7 53 1
7 54 1
7 55 1
7 56 1
7 57 1
7 58 1
7 59 1
7 60 1
7 61 1
7 62 1
7 63 1
7 64 1
7 65 1
7 66 1
7 67 1
7 68 1
7 69 1
7 70 1
7 71 1
7 72 1
7 73 1
7 74 1
7 75 1
7 76 1
7 77 1
7 78 1
7 79 1
7 80 1
7 81 1
7 82 1
7 83 1
7 84 1
7 85 1
7 86 1
7 87 1
7 88 1
7 89 1
7 90 1
7 91 1
7 92 1
7 93 1
7 94 1
7 95 1
7 96 1
7 97 1
7 98 1
7 99 1
7 100 1
7 101 1
7 102 1
7 103 1
7 104 1
7 105 1
7 106 1
7 107 1
7 108 1
7 109 1
7 110 1
7 111 1
7 112 1
7 113 1
7 114 1
7 115 1
7 116 1
7 117 1
7 118 1
7 119 1
8 0 1
8 1 1
8 2 1
8 3 1
8 4 1
8 5 1
8 6 1
8 7 1
8 8 1
8 9 1
8 10 1
8 11 1
8 12 1
8 13 1
8 14 1
8 15 1
8 16 1
8 17 1
8 18 1
8 19 1
8 20 1
8 21 1
8 22 1
8 23 1
8 24 1
8 25 1
8 26 1
8 27 1
8 28 1
8 29 1
8 30 1
8 31 1
8 32 1
8 33 1
8 34 1
8 35 1
8 36 1
8 37 1
8 38 1
8 39 1
8 40 1
8 41 1
8 42 1
8 43 1
8 44 1
8 45 1
8 46 1
8 47 1
8 48 1
8 49 1
8 50 1
8 51 1
8 52 1
8 53 1
8 54 1
8 55 1
8 56 1
8 57 1
8 58 1
8 59 1
8 60 1
8 61 1
8 62 1
8 63 1
8 64 1
8 65 1
8 66 1
8 67 1
8 68 1
8 69 1
8 70 1
8 71 1
8 72 1
8 73 1
8 74 1
8 75 1
8 76 1
8 77 1
8 78 1
8 79 1
8 80 1
8 81 1
8 82 1
8 83 1
8 84 1
8 85 1
8 86 1
8 87 1
8 88 1
8 89 1
8 90 1
8 91 1
8 92 1
8 93 1
8 94 1
8 95 1
8 96 1
8 97 1
8 98 1
8 99 1
8 100 1
8 101 1
8 102 1
8 103 1
8 104 1
8 105 1
8 106 1
8 107 1
8 108 1
8 109 1
8 110 1
8 111 1
8 112 1
8 113 1
8 114 1
8 115 1
8 116 1
8 117 1
8 118 1
8 119 1
9 0 1
9 1 1
9 2 1
9 3 1
9 4 1
9 5 1
9 6 1
9 7 1
9 8 1
9 9 1
9 10 1
9 11 1
9 12 1
9 13 1
9 14 1
9 15 1
9 16 1
9 17 1
9 18 1
9 19 1
9 20 1
9 21 1
9 22 1
9 23 1
9 24 1
9 25 1
9 26 1
9 27 1
9 28 1
9 29 1
9 30 1
9 31 1
9 32 1
9 33 1
9 34 1
9 35 1
9 36 1
9 37 1
9 38 1
9 39 1
9 40 1
9 41 1
9 42 1
9 43 1
9 44 1
9 45 1
9 46 1
9 47 1
9 48 1
9 49 1
9 50 1
9 51 1
9 52 1
9 53 1
9 54 1
9 55 1
9 56 1
9 57 1
9 58 1
9 59 1
9 60 1
9 61 1
9 62 1
9 63 1
9 64 1
9 65 1
9 66 1
9 67 1
9 68 1
9 69 1
9 70 1
9 71 1
9 72 1
9 73 1
9 74 1
9 75 1
9 76 1
9 77 1
9 78 1
9 79 1
9 80 1
9 81 1
9 82 1
9 83 1
9 84 1
9 85 1
9 86 1
9 87 1
9 88 1
9 89 1
9 90 1
9 91 1
9 92 1
9 93 1
9 94 1
9 95 1
9 96 1
9 97 1
9 98 1
9 99 1
9 100 1
9 101 1
9 102 1
9 103 1
9 104 1
9 105 1
9 106 1
9 107 1
9 108 1
9 109 1
9 110 1
9 111 1
9 112 1
9 113 1
9 114 1
9 115 1
9 116 1
9 117 1
9 118 1
9 119 1
10 0 1
10 1 1
10 2 1
10 3 1
10 4 1
10 5 1
10 6 1
10 7 1
10 8 1
10 9 1
10 10 1
10 11 1
10 12 1
10 13 1
10 14 1
10 15 1
10 16 1
10 17 1
10 18 1
10 19 1
10 20 1
10 21 1
10 22 1
10 23 1
10 24 1
10 25 1
10 26 1
10 27 1
10 28 1
10 29 1
10 30 1
10 31 1
10 32 1
10 33 1
10 34 1
10 35 1
10 36 1
10 37 1
10 38 1
10 39 1
10 40 1
10 41 1
10 42 1
10 43 1
10 44 1
10 45 1
10 46 1
10 47 1
10 48 1
10 49 1
10 50 1
10 51 1
10 52 1
10 53 1
10 54 1
10 55 1
10 56 1
10 57 1
10 58 1
10 59 1
10 60 1
10 61 1
10 62 1
10 63 1
10 64 1
10 65 1
10 66 1
10 67 1
10 68 1
10 69 1
10 70 1
10 71 1
10 72 1
10 73 1
10 74 1
10 75 1
10 76 1
10 77 1
10 78 1
10 79 1
10 80 1
10 81 1
10 82 1
10 83 1
10 84 1
10 85 1
10 86 1
10 87 1
10 88 1
10 89 1
10 90 1
10 91 1
10 92 1
10 93 1
10 94 1
10 95 1
10 96 1
10 97 1
10 98 1
10 99 1
10 100 1
10 101 1
10 102 1
10 103 1
10 104 1
10 105 1
10 106 1
10 107 1
10 108 1
10 109 1
10 110 1
10 111 1
10 112 1
10 113 1
10 114 1
10 115 1
10 116 1
10 117 1
10 118 1
10 119 1
11 0 1
11 1 1
11 2 1
11 3 1
11 4 1
11 5 1
11 6 1
11 7 1
11 8 1
11 9 1
11 10 1
11 11 1
11 12 1
11 13 1
11 14 1
11 15 1
11 16 1
11 17 1
11 18 1
11 19 1
11 20 1
11 21 1
11 22 1
11 23 1
11 24 1
11 25 1
11 26 1
11 27 1
11 28 1
11 29 1
11 30 1
11 31 1
11 32 1
11 33 1
11 34 1
11 35 1
11 36 1
11 37 1
11 38 1
11 39 1
11 40 1
11 41 1
11 42 1
11 43 1
11 44 1
11 45 1
11 46 1
11 47 1
11 48 1
11 49 1
11 50 1
11 51 1
11 52 1
[...]
POINT_DATA 14400
SCALARS CON float 1
LOOKUP_TABLE default
1	1	1	1	1	1	1	1	1	1	1	1	1	1	1	1	1	1	1	1	1	1	1	1	0.997905	0.810735	0.592302	0.419108	0.304861	0.237556	0.200995	0.182453	0.17379	0.17046	0.170312	0.172738	0.178235	0.188267	0.205295	0.232751	0.274594	0.333596	0.406659	0.475938	0.528592	0.529231	0.529693	0.529984	0.530125	0.530142	0.530065	0.529923	0.52974	0.529536	0.52933	0.529135	0.528962	0.528819	0.528713	0.528648	0.528626	0.528648	0.528713	0.528819	0.528962	0.529135	0.52933	0.529536	0.52974	0.529923	0.530065	0.530142	0.530125	0.529984	0.529693	0.529231	0.528592	0.475938	0.406659	0.333596	0.274594	0.232751	0.205295	0.188267	0.178235	0.172738	0.170312	0.17046	0.17379	0.182453	0.200995	0.237556	0.304861	0.419108	0.592302	0.810735	0.997905	1	1	1	1	1	1	1	1	1	1	1	1	1	1	1	1	1	1	1	1	1	1	1	1	1	1	1	1	1	1	1	1	1	1	1	1	1	1	1	1	1	1	1	1	1	1	1	0.997919	0.810715	0.592274	0.419073	0.30482	0.237504	0.200926	0.182352	0.173626	0.170174	0.169794	0.1718	0.176571	0.185411	0.200591	0.225379	0.263716	0.318721	0.388192	0.454769	0.500017	0.500018	0.500024	0.500034	0.500049	0.500068	0.500091	0.500117	0.500145	0.500173	0.500201	0.500228	0.500251	0.50027	0.500285	0.500294	0.500297	0.500294	0.500285	0.50027	0.500251	0.500228	0.500201	0.500173	0.500145	0.500117	0.500091	0.500068	0.500049	0.500034	0.500024	0.500018	0.500017	0.454769	0.388192	0.318721	0.263716	0.225379	0.200591	0.185411	0.176571	0.1718	0.169794	0.170174	0.173626	0.182352	0.200926	0.237504	0.30482	0.419073	0.592274	0.810715	0.997919	1	1	1	1	1	1	1	1	1	1	1	1	1	1	1	1	1	1	1	1	1	1	1	1	1	1	1	1	1	1	1	1	1	1	1	1	1	1	1	1	1	1	1	1	1	1	1	0.991046	0.801394	0.584309	0.413628	0.301547	0.235691	0.199979	0.181894	0.173467	0.170266	0.170212	0.172761	0.178486	0.188983	0.206921	0.236055	0.280746	0.344072	0.42242	0.493675	0.530152	0.531223	0.532353	0.533492	0.534588	0.535613	0.536553	0.537401	0.538155	0.538815	0.539385	0.539864	0.540254	0.540557	0.540773	0.540902	0.540945	0.540902	0.540773	0.540557	0.540254	0.539864	0.539385	0.538815	0.538155	0.537401	0.536553	0.535613	0.534588	0.533492	0.532353	0.531223	0.530152	0.493675	0.42242	0.344072	0.280746	0.236055	0.206921	0.188983	0.178486	0.172761	0.170212	0.170266	0.173467	0.181894	0.199979	0.235691	0.301547	0.413628	0.584309	0.801394	0.991046	1	1	1	1	1	1	1	1	1	1	1	1	1	1	1	1	1	1	1	1	1	1	1	1	1	1	1	1	1	1	1	1	1	1	1	1	1	1	1	1	1	1	1	1	1	1	1	0.977178	0.782878	0.568696	0.403057	0.295247	0.232241	0.198223	0.181119	0.173342	0.170767	0.171612	0.175696	0.184112	0.199196	0.224591	0.265111	0.325764	0.408702	0.505645	0.58364	0.608151	0.612554	0.616677	0.620428	0.623751	0.626644	0.629134	0.631261	0.633065	0.634583	0.635845	0.636876	0.637696	0.63832	0.638759	0.639019	0.639106	0.639019	0.638759	0.63832	0.637696	0.636876	0.635845	0.634583	0.633065	0.631261	0.629134	0.626644	0.623751	0.620428	0.616677	0.612554	0.608151	0.58364	0.505645	0.408702	0.325764	0.265111	0.224591	0.199196	0.184112	0.175696	0.171612	0.170767	0.173342	0.181119	0.198223	0.232241	0.295247	0.403057	0.568696	0.782878	0.977178	1	1	1	1	1	1	1	1	1	1	1	1	1	1	1	1	1	1	1	1	1	1	1	1	1	1	1	1	1	1	1	1	1	1	1	1	1	1	1	1	1	1	1	1	1	1	1	0.955946	0.755384	0.546017	0.387915	0.286305	0.227388	0.195795	0.180114	0.173324	0.171771	0.174144	0.180863	0.193872	0.216687	0.254414	0.313223	0.398342	0.508852	0.626883	0.70354	0.713859	0.723259	0.731495	0.73848	0.7443	0.749109	0.753069	0.756327	0.759004	0.761195	0.762976	0.764403	0.76552	0.766359	0.766943	0.767288	0.767402	0.767288	0.766943	0.766359	0.76552	0.764403	0.762976	0.761195	0.759004	0.756327	0.753069	0.749109	0.7443	0.73848	0.731495	0.723259	0.713859	0.70354	0.626883	0.508852	0.398342	0.313223	0.254414	0.216687	0.193872	0.180863	0.174144	0.171771	0.173324	0.180114	0.195795	0.227388	0.286305	0.387915	0.546017	0.755384	0.955946	1	1	1	1	1	1	1	1	1	1	1	1	1	1	1	1	1	1	1	1	1	1	1	1	1	1	1	1	1	1	1	1	1	1	1	1	1	1	1	1	1	1	1	1	1	1	1	0.926669	0.719268	0.517153	0.368997	0.275266	0.221459	0.192885	0.179003	0.173525	0.173425	0.178046	0.18866	0.208398	0.242355	0.297385	0.380776	0.496363	0.635805	0.761673	0.808732	0.825091	0.839029	0.850417	0.859313	0.866255	0.871711	0.876037	0.879492	0.882264	0.88449	0.88627	0.887677	0.888767	0.889579	0.89014	0.89047	0.890579	0.89047	0.89014	0.889579	0.888767	0.887677	0.88627	0.88449	0.882264	0.879492	0.876037	0.871711	0.866255	0.859313	0.850417	0.839029	0.825091	0.808732	0.761673	0.635805	0.496363	0.380776	0.297385	0.242355	0.208398	0.18866	0.178046	0.173425	0.173525	0.179003	0.192885	0.221459	0.275266	0.368997	0.517153	0.719268	0.926669	1	1	1	1	1	1	1	1	1	1	1	1	1	1	1	1	1	1	1	1	1	1	1	1	1	1	1	1	1	1	1	1	1	1	1	1	1	1	1	1	1	1	1	1	1	1	1	0.88807	0.675102	0.483294	0.3473	0.26278	0.214837	0.189715	0.17793	0.174079	0.175909	0.18361	0.199562	0.228409	0.277104	0.354176	0.466908	0.614341	0.773736	0.879298	0.902746	0.921703	0.936589	0.947432	0.954527	0.959582	0.963353	0.966245	0.968504	0.970286	0.971699	0.972817	0.973694	0.974369	0.974869	0.975213	0.975415	0.975481	0.975415	0.975213	0.974869	0.974369	0.973694	0.972817	0.971699	0.970286	0.968504	0.966245	0.963353	0.959582	0.954527	0.947432	0.936589	0.921703	0.902746	0.879298	0.773736	0.614341	0.466908	0.354176	0.277104	0.228409	0.199562	0.18361	0.175909	0.174079	0.17793	0.189715	0.214837	0.26278	0.3473	0.483294	0.675102	0.88807	1	1	1	1	1	1	1	1	1	1	1	1	1	1	1	1	1	1	1	1	1	1	1	1	1	1	1	1	1	1	1	1	1	1	1	1	1	1	1	1	1	1	1	1	1	1	1	0.837813	0.623856	0.44594	0.323949	0.249549	0.207925	0.186517	0.177051	0.175131	0.179418	0.19114	0.21404	0.254541	0.321521	0.424536	0.568474	0.741964	0.898621	0.950218	0.971472	0.98574	0.995511	1	1	1	1	1	1	1	1	1	1	1	1	1	1	1	1	1	1	1	1	1	1	1	1	1	1	1	1	1	0.995511	0.98574	0.971472	0.950218	0.898621	0.741964	0.568474	0.424536	0.321521	0.254541	0.21404	0.19114	0.179418	0.175131	0.177051	0.186517	0.207925	0.249549	0.323949	0.44594	0.623856	0.837813	1	1	1	1	1	1	1	1	1	1	1	1	1	1	1	1	1	1	1	1	1	1	1	1	1	1	1	1	1	1	1	1	1	1	1	1	1	1	1	1	1	1	1	1	1	1	0.963725	0.773462	0.567613	0.406856	0.300107	0.236264	0.201112	0.18351	0.176509	0.176814	0.184128	0.200898	0.232458	0.287156	0.375533	0.506721	0.679211	0.862908	0.971975	0.993515	1	1	1	1	1	1	1	1	1	1	1	1	1	1	1	1	1	1	1	1	1	1	1	1	1	1	1	1	1	1	1	1	1	1	1	0.993515	0.971975	0.862908	0.679211	0.506721	0.375533	0.287156	0.232458	0.200898	0.184128	0.176814	0.176509	0.18351	0.201112	0.236264	0.300107	0.406856	0.567613	0.773462	0.963725	1	1	1	1	1	1	1	1	1	1	1	1	1	1	1	1	1	1	1	1	1	1	1	1	1	1	1	1	1	1	1	1	1	1	1	1	1	1	1	1	1	1	1	1	1	0.904003	0.700881	0.509132	0.367826	0.27687	0.223547	0.194734	0.180879	0.176423	0.179235	0.190166	0.213046	0.25496	0.326159	0.438128	0.597136	0.78959	0.958558	0.999674	1	1	1	1	1	1	1	1	1	1	1	1	1	1	1	1	1	1	1	1	1	1	1	1	1	1	1	1	1	1	1	1	1	1	1	1	1	0.999674	0.958558	0.78959	0.597136	0.438128	0.326159	0.25496	0.213046	0.190166	0.179235	0.176423	0.180879	0.194734	0.223547	0.27687	0.367826	0.509132	0.700881	0.904003	1	1	1	1	1	1	1	1	1	1	1	1	1	1	1	1	1	1	1	1	1	1	1	1	1	1	1	1	1	1	1	1	1	1	1	1	1	1	1	1	1	1	1	1	0.992808	0.827811	0.623029	0.450967	0.330505	0.255179	0.211899	0.18905	0.17876	0.176872	0.182448	0.197575	0.227583	0.281383	0.370865	0.507221	0.690419	0.887242	0.997561	1	1	1	1	1	1	1	1	1	1	1	1	1	1	1	1	1	1	1	1	1	1	1	1	1	1	1	1	1	1	1	1	1	1	1	1	1	1	1	0.997561	0.887242	0.690419	0.507221	0.370865	0.281383	0.227583	0.197575	0.182448	0.176872	0.17876	0.18905	0.211899	0.255179	0.330505	0.450967	0.623029	0.827811	0.992808	1	1	1	1	1	1	1	1	1	1	1	1	1	1	1	1	1	1	1	1	1	1	1	1	1	1	1	1	1	1	1	1	1	1	1	1	1	1	1	1	1	1	1	0.926466	0.736085	0.544093	0.395733	0.296296	0.23575	0.201674	0.18423	0.177231	0.177883	0.186445	0.206283	0.244303	0.311188	0.419952	0.579745	0.780109	0.962468	1	1	1	1	1	1	1	1	1	1	1	1	1	1	1	1	1	1	1	1	1	1	1	1	1	1	1	1	1	1	1	1	1	1	1	1	1	1	1	1	1	0.962468	0.780109	0.579745	0.419952	0.311188	0.244303	0.206283	0.186445	0.177883	0.177231	0.18423	0.201674	0.23575	0.296296	0.395733	0.544093	0.736085	0.926466	1	1	1	1	1	1	1	1	1	1	1	1	1	1	1	1	1	1	1	1	1	1	1	1	1	1	1	1	1	1	1	1	1	1	1	1	1	1	1	1	1	1	0.986184	0.834706	0.638622	0.46854	0.345591	0.266203	0.21903	0.193063	0.180347	0.176306	0.179428	0.191134	0.216088	0.262768	0.343455	0.471542	0.652101	0.859922	1	1	1	1	1	1	1	1	1	1	1	1	1	1	1	1	1	1	1	1	1	1	1	1	1	1	1	1	1	1	1	1	1	1	1	1	1	1	1	1	1	1	1	0.859922	0.652101	0.471542	0.343455	0.262768	0.216088	0.191134	0.179428	0.176306	0.180347	0.193063	0.21903	0.266203	0.345591	0.46854	0.638622	0.834706	0.986184	1	1	1	1	1	1	1	1	1	1	1	1	1	1	1	1	1	1	1	1	1	1	1	1	1	1	1	1	1	1	1	1	1	1	1	1	1	1	1	1	0.985535	0.904532	0.724208	0.542646	0.399947	0.302032	0.240778	0.205195	0.186103	0.177388	0.175942	0.18142	0.196346	0.226652	0.282317	0.376927	0.523333	0.720119	0.922145	1	1	1	1	1	1	1	1	1	1	1	1	1	1	1	1	1	1	1	1	1	1	1	1	1	1	1	1	1	1	1	1	1	1	1	1	1	1	1	1	1	1	1	0.922145	0.720119	0.523333	0.376927	0.282317	0.226652	0.196346	0.18142	0.175942	0.177388	0.186103	0.205195	0.240778	0.302032	0.399947	0.542646	0.724208	0.904532	0.985535	1	1	1	1	1	1	1	1	1	1	1	1	1	1	1	1	1	1	1	1	1	1	1	1	1	1	1	1	1	1	1	1	1	1	1	1	1	0.988973	0.970763	0.937999	0.790534	0.610365	0.454663	0.340771	0.265793	0.220137	0.194185	0.180706	0.175269	0.176045	0.183721	0.201836	0.237514	0.3021	0.410111	0.572952	0.781231	0.971297	1	1	1	1	1	1	1	1	1	1	1	1	1	1	1	1	1	1	1	1	1	1	1	1	1	1	1	1	1	1	1	1	1	1	1	1	1	1	1	1	1	1	1	0.971297	0.781231	0.572952	0.410111	0.3021	0.237514	0.201836	0.183721	0.176045	0.175269	0.180706	0.194185	0.220137	0.265793	0.340771	0.454663	0.610365	0.790534	0.937999	0.970763	0.988973	1	1	1	1	1	1	1	1	1	1	1	1	1	1	1	1	1	1	1	1	1	1	1	1	1	1	0.999255	0.997267	0.994545	0.991108	0.98682	0.981433	0.974542	0.965424	0.952728	0.934012	0.909921	0.825636	0.66338	0.504077	0.378958	0.292176	0.236913	0.204037	0.18576	0.176695	0.173857	0.176488	0.186155	0.207299	0.248124	0.321148	0.441445	0.618301	0.833564	1	1	1	1	1	1	1	1	1	1	1	1	1	1	1	1	1	1	1	1	1	1	1	1	1	1	1	1	1	1	1	1	1	1	1	1	1	1	1	1	1	1	1	1	1	0.833564	0.618301	0.441445	0.321148	0.248124	0.207299	0.186155	0.176488	0.173857	0.176695	0.18576	0.204037	0.236913	0.292176	0.378958	0.504077	0.66338	0.825636	0.909921	0.934012	0.952728	0.965424	0.974542	0.981433	0.98682	0.991108	0.994545	0.997267	0.999255	1	1	1	1	1	1	1	1	0.943157	0.943157	0.943057	0.942846	0.942499	0.941974	0.94121	0.940107	0.938495	0.936023	0.932557	0.928122	0.922622	0.915868	0.907585	0.8974	0.884816	0.86925	0.850357	0.818002	0.693487	0.542469	0.412807	0.317595	0.254186	0.214885	0.191983	0.179566	0.173839	0.172992	0.177122	0.188522	0.2124	0.257887	0.338456	0.469404	0.657356	0.873193	1	1	1	1	1	1	1	1	1	1	1	1	1	1	1	1	1	1	1	1	1	1	1	1	1	1	1	1	1	1	1	1	1	1	1	1	1	1	1	1	1	1	1	1	1	0.873193	0.657356	0.469404	0.338456	0.257887	0.2124	0.188522	0.177122	0.172992	0.173839	0.179566	0.191983	0.214885	0.254186	0.317595	0.412807	0.542469	0.693487	0.818002	0.850357	0.86925	0.884816	0.8974	0.907585	0.915868	0.922622	0.928122	0.932557	0.936023	0.938495	0.940107	0.94121	0.941974	0.942499	0.942846	0.943057	0.943157	0.836375	0.836375	0.83624	0.835954	0.835482	0.834769	0.833737	0.832279	0.830255	0.827496	0.823909	0.81942	0.813922	0.807271	0.799301	0.789838	0.778731	0.765916	0.748928	0.690737	0.565057	0.43945	0.340197	0.270786	0.226006	0.198868	0.183357	0.175207	0.171895	0.172509	0.177799	0.190619	0.216799	0.266215	0.353064	0.492607	0.68859	0.901912	1	1	1	1	1	1	1	1	1	1	1	1	1	1	1	1	1	1	1	1	1	1	1	1	1	1	1	1	1	1	1	1	1	1	1	1	1	1	1	1	1	1	1	1	1	0.901912	0.68859	0.492607	0.353064	0.266215	0.216799	0.190619	0.177799	0.172509	0.171895	0.175207	0.183357	0.198868	0.226006	0.270786	0.340197	0.43945	0.565057	0.690737	0.748928	0.765916	0.778731	0.789838	0.799301	0.807271	0.813922	0.81942	0.823909	0.827496	0.830255	0.832279	0.833737	0.834769	0.835482	0.835954	0.83624	0.836375	0.707922	0.707922	0.70783	0.70763	0.707294	0.706777	0.706019	0.704944	0.703467	0.701498	0.69897	0.695814	0.691957	0.687327	0.68186	0.675525	0.668348	0.660457	0.638897	0.568514	0.458892	0.360438	0.287025	0.23754	0.206414	0.187906	0.177529	0.172302	0.170637	0.172259	0.178381	0.192262	0.220188	0.272583	0.364142	0.509958	0.711277	0.921526	1	1	1	1	1	1	1	1	1	1	1	1	1	1	1	1	1	1	1	1	1	1	1	1	1	1	1	1	1	1	1	1	1	1	1	1	1	1	1	1	1	1	1	1	1	0.921526	0.711277	0.509958	0.364142	0.272583	0.220188	0.192262	0.178381	0.172259	0.170637	0.172302	0.177529	0.187906	0.206414	0.23754	0.287025	0.360438	0.458892	0.568514	0.638897	0.660457	0.668348	0.675525	0.68186	0.687327	0.691957	0.695814	0.69897	0.701498	0.703467	0.704944	0.706019	0.706777	0.707294	0.70763	0.70783	0.707922	0.591311	0.591311	0.591295	0.591254	0.591172	0.591025	0.590779	0.590398	0.589837	0.589056	0.588013	0.586669	0.584986	0.582931	0.580486	0.577658	0.574491	0.568603	0.545103	0.475094	0.383865	0.307294	0.252388	0.216352	0.194121	0.181106	0.173946	0.17053	0.169878	0.17212	0.178756	0.193301	0.222321	0.276576	0.371053	0.520677	0.725022	0.932989	1	1	1	1	1	1	1	1	1	1	1	1	1	1	1	1	1	1	1	1	1	1	1	1	1	1	1	1	1	1	1	1	1	1	1	1	1	1	1	1	1	1	1	1	1	0.932989	0.725022	0.520677	0.371053	0.276576	0.222321	0.193301	0.178756	0.17212	0.169878	0.17053	0.173946	0.181106	0.194121	0.216352	0.252388	0.307294	0.383865	0.475094	0.545103	0.568603	0.574491	0.577658	0.580486	0.582931	0.584986	0.586669	0.588013	0.589056	0.589837	0.590398	0.590779	0.591025	0.591172	0.591254	0.591295	0.591311	0.516595	0.516595	0.51662	0.516666	0.51673	0.516805	0.516881	0.516949	0.516997	0.517012	0.51698	0.516887	0.516716	0.516454	0.516089	0.515619	0.515047	0.506857	0.485071	0.421412	0.343379	0.279669	0.234815	0.205779	0.188056	0.177775	0.172194	0.169656	0.169485	0.172006	0.178851	0.193638	0.223039	0.277931	0.373397	0.524298	0.729624	0.936764	1	1	1	1	1	1	1	1	1	1	1	1	1	1	1	1	1	1	1	1	1	1	1	1	1	1	1	1	1	1	1	1	1	1	1	1	1	1	1	1	1	1	1	1	1	0.936764	0.729624	0.524298	0.373397	0.277931	0.223039	0.193638	0.178851	0.172006	0.169485	0.169656	0.172194	0.177775	0.188056	0.205779	0.234815	0.279669	0.343379	0.421412	0.485071	0.506857	0.515047	0.515619	0.516089	0.516454	0.516716	0.516887	0.51698	0.517012	0.516997	0.516949	0.516881	0.516805	0.51673	0.516666	0.51662	0.516595	0.502776	0.502776	0.502751	0.502702	0.50263	0.502537	0.502426	0.502299	0.502158	0.502007	0.50185	0.501691	0.501535	0.501387	0.501252	0.501136	0.501041	0.489929	0.468037	0.411298	0.337647	0.27647	0.233061	0.204828	0.187544	0.177496	0.172032	0.169547	0.169385	0.171876	0.178634	0.193238	0.222285	0.276555	0.371039	0.520669	0.725019	0.932989	1	1	1	1	1	1	1	1	1	1	1	1	1	1	1	1	1	1	1	1	1	1	1	1	1	1	1	1	1	1	1	1	1	1	1	1	1	1	1	1	1	1	1	1	1	0.932989	0.725019	0.520669	0.371039	0.276555	0.222285	0.193238	0.178634	0.171876	0.169385	0.169547	0.172032	0.177496	0.187544	0.204828	0.233061	0.27647	0.337647	0.411298	0.468037	0.489929	0.501041	0.501136	0.501252	0.501387	0.501535	0.501691	0.50185	0.502007	0.502158	0.502299	0.502426	0.502537	0.50263	0.502702	0.502751	0.502776	0.553144	0.553144	0.552977	0.552642	0.552139	0.551466	0.55062	0.549598	0.548396	0.547012	0.545447	0.543708	0.541815	0.5398	0.537712	0.535611	0.533564	0.518762	0.493353	0.442441	0.365005	0.296659	0.246497	0.213135	0.19238	0.180159	0.173406	0.170177	0.16957	0.171731	0.178118	0.192126	0.220113	0.272538	0.364114	0.509942	0.711272	0.921527	1	1	1	1	1	1	1	1	1	1	1	1	1	1	1	1	1	1	1	1	1	1	1	1	1	1	1	1	1	1	1	1	1	1	1	1	1	1	1	1	1	1	1	1	1	0.921527	0.711272	0.509942	0.364114	0.272538	0.220113	0.192126	0.178118	0.171731	0.16957	0.170177	0.173406	0.180159	0.19238	0.213135	0.246497	0.296659	0.365005	0.442441	0.493353	0.518762	0.533564	0.535611	0.537712	0.5398	0.541815	0.543708	0.545447	0.547012	0.548396	0.549598	0.55062	0.551466	0.552139	0.552642	0.552977	0.553144	0.654604	0.654604	0.654258	0.653561	0.652503	0.651068	0.649235	0.646975	0.644254	0.641033	0.637273	0.632943	0.628034	0.622575	0.616655	0.610413	0.604014	0.585255	0.552952	0.507848	0.422235	0.339282	0.275097	0.230936	0.202809	0.185944	0.176432	0.17162	0.170089	0.171615	0.177357	0.190393	0.216676	0.266143	0.35302	0.492584	0.688584	0.901917	1	1	1	1	1	1	1	1	1	1	1	1	1	1	1	1	1	1	1	1	1	1	1	1	1	1	1	1	1	1	1	1	1	1	1	1	1	1	1	1	1	1	1	1	1	0.901917	0.688584	0.492584	0.35302	0.266143	0.216676	0.190393	0.177357	0.171615	0.170089	0.17162	0.176432	0.185944	0.202809	0.230936	0.275097	0.339282	0.422235	0.507848	0.552952	0.585255	0.604014	0.610413	0.616655	0.622575	0.628034	0.632943	0.637273	0.641033	0.644254	0.646975	0.649235	0.651068	0.652503	0.653561	0.654258	0.654604	0.781021	0.781021	0.780552	0.779604	0.778157	0.776178	0.773621	0.770426	0.766512	0.761781	0.756113	0.749372	0.741423	0.732179	0.721688	0.710127	0.697741	0.676174	0.635359	0.590842	0.503548	0.402819	0.319045	0.258859	0.219417	0.195274	0.181379	0.174038	0.171044	0.171608	0.17644	0.188178	0.212217	0.257783	0.338395	0.469375	0.657355	0.87321	1	1	1	1	1	1	1	1	1	1	1	1	1	1	1	1	1	1	1	1	1	1	1	1	1	1	1	1	1	1	1	1	1	1	1	1	1	1	1	1	1	1	1	1	1	0.87321	0.657355	0.469375	0.338395	0.257783	0.212217	0.188178	0.17644	0.171608	0.171044	0.174038	0.181379	0.195274	0.219417	0.258859	0.319045	0.402819	0.503548	0.590842	0.635359	0.676174	0.697741	0.710127	0.721688	0.732179	0.741423	0.749372	0.756113	0.761781	0.766512	0.770426	0.773621	0.776178	0.778157	0.779604	0.780552	0.781021	0.899757	0.899757	0.899303	0.898382	0.896971	0.89503	0.892503	0.889309	0.885342	0.880456	0.874451	0.867054	0.857894	0.846528	0.83276	0.816728	0.798613	0.776582	0.729	0.672911	0.598196	0.483915	0.378048	0.297565	0.24295	0.208717	0.188619	0.17766	0.17258	0.171816	0.175485	0.185656	0.207039	0.247981	0.321069	0.441413	0.618312	0.833617	1	1	1	1	1	1	1	1	1	1	1	1	1	1	1	1	1	1	1	1	1	1	1	1	1	1	1	1	1	1	1	1	1	1	1	1	1	1	1	1	1	1	1	1	1	0.833617	0.618312	0.441413	0.321069	0.247981	0.207039	0.185656	0.175485	0.171816	0.17258	0.17766	0.188619	0.208717	0.24295	0.297565	0.378048	0.483915	0.598196	0.672911	0.729	0.776582	0.798613	0.816728	0.83276	0.846528	0.857894	0.867054	0.874451	0.880456	0.885342	0.889309	0.892503	0.89503	0.896971	0.898382	0.899303	0.899757	0.979854	0.979854	0.979575	0.979009	0.978139	0.976936	0.975361	0.973355	0.970837	0.967686	0.963722	0.95865	0.951926	0.942434	0.92913	0.912286	0.89174	0.867204	0.822656	0.758029	0.690701	0.576483	0.450527	0.34727	0.274065	0.226868	0.198571	0.18275	0.174862	0.172365	0.174622	0.18302	0.201478	0.237324	0.302002	0.41008	0.572984	0.781318	0.9714	1	1	1	1	1	1	1	1	1	1	1	1	1	1	1	1	1	1	1	1	1	1	1	1	1	1	1	1	1	1	1	1	1	1	1	1	1	1	1	1	1	1	1	0.9714	0.781318	0.572984	0.41008	0.302002	0.237324	0.201478	0.18302	0.174622	0.172365	0.174862	0.18275	0.198571	0.226868	0.274065	0.34727	0.450527	0.576483	0.690701	0.758029	0.822656	0.867204	0.89174	0.912286	0.92913	0.942434	0.951926	0.95865	0.963722	0.967686	0.970837	0.973355	0.975361	0.976936	0.978139	0.979009	0.979575	0.979854	1	1	1	1	1	1	1	1	1	1	1	1	1	0.998519	0.990839	0.979399	0.963617	0.940348	0.90587	0.839873	0.763389	0.669704	0.532781	0.407259	0.313049	0.250193	0.211615	0.189568	0.178061	0.173378	0.173981	0.180462	0.195867	0.226405	0.282198	0.376902	0.523402	0.720279	0.922337	1	1	1	1	1	1	1	1	1	1	1	1	1	1	1	1	1	1	1	1	1	1	1	1	1	1	1	1	1	1	1	1	1	1	1	1	1	1	1	1	1	1	1	0.922337	0.720279	0.523402	0.376902	0.282198	0.226405	0.195867	0.180462	0.173981	0.173378	0.178061	0.189568	0.211615	0.250193	0.313049	0.407259	0.532781	0.669704	0.763389	0.839873	0.90587	0.940348	0.963617	0.979399	0.990839	0.998519	1	1	1	1	1	1	1	1	1	1	1	1	1	1	1	1	1	1	1	1	1	1	1	1	1	1	1	1	1	0.988555	0.9647	0.911801	0.832404	0.748862	0.618854	0.475512	0.359557	0.278877	0.228015	0.198322	0.182323	0.17497	0.173678	0.178153	0.190507	0.215776	0.262629	0.343443	0.471663	0.65238	0.860362	1	1	1	1	1	1	1	1	1	1	1	1	1	1	1	1	1	1	1	1	1	1	1	1	1	1	1	1	1	1	1	1	1	1	1	1	1	1	1	1	1	1	1	0.860362	0.65238	0.471663	0.343443	0.262629	0.215776	0.190507	0.178153	0.173678	0.17497	0.182323	0.198322	0.228015	0.278877	0.359557	0.475512	0.618854	0.748862	0.832404	0.911801	0.9647	0.988555	1	1	1	1	1	1	1	1	1	1	1	1	1	1	1	1	1	1	1	1	1	1	1	1	1	1	1	1	1	1	1	1	1	1	0.996391	0.967116	0.894396	0.80629	0.700136	0.548465	0.412419	0.312681	0.247822	0.20912	0.187744	0.177222	0.173803	0.176229	0.185644	0.205897	0.244143	0.311196	0.420143	0.580171	0.780801	0.963275	1	1	1	1	1	1	1	1	1	1	1	1	1	1	1	1	1	1	1	1	1	1	1	1	1	1	1	1	1	1	1	1	1	1	1	1	1	1	1	1	1	0.963275	0.780801	0.580171	0.420143	0.311196	0.244143	0.205897	0.185644	0.176229	0.173803	0.177222	0.187744	0.20912	0.247822	0.312681	0.412419	0.548465	0.700136	0.80629	0.894396	0.967116	0.996391	1	1	1	1	1	1	1	1	1	1	1	1	1	1	1	1	1	1	1	1	1	1	1	