# vtk DataFile Version 2.0
output5.vtk
ASCII 
DATASET STRUCTURED_GRID
DIMENSIONS 120 120 1
POINTS 14400 float
0 0 1
0 1 1
0 2 1
0 3 1
0 4 1
0 5 1
0 6 1
0 7 1
0 8 1
0 9 1
0 10 1
0 11 1
0 12 1
0 13 1
0 14 1
0 15 1
0 16 1
0 17 1
0 18 1
0 19 1
0 20 1
0 21 1
0 22 1
0 23 1
0 24 1
0 25 1
0 26 1
0 27 1
0 28 1
0 29 1
0 30 1
0 31 1
0 32 1
0 33 1
0 34 1
0 35 1
0 36 1
0 37 1
0 38 1
0 39 1
0 40 1
0 41 1
0 42 1
0 43 1
0 44 1
0 45 1
0 46 1
0 47 1
0 48 1
0 49 1
0 50 1
0 51 1
0 52 1
0 53 1
0 54 1
0 55 1
0 56 1
0 57 1
0 58 1
0 59 1
0 60 1
0 61 1
0 62 1
0 63 1
0 64 1
0 65 1
0 66 1
0 67 1
0 68 1
0 69 1
0 70 1
0 71 1
0 72 1
0 73 1
0 74 1
0 75 1
0 76 1
0 77 1
0 78 1
0 79 1
0 80 1
0 81 1
0 82 1
0 83 1
0 84 1
0 85 1
0 86 1
0 87 1
0 88 1
0 89 1
0 90 1
0 91 1
0 92 1
0 93 1
0 94 1
0 95 1
0 96 1
0 97 1
0 98 1
0 99 1
0 100 1
0 101 1
0 102 1
0 103 1
0 104 1
0 105 1
0 106 1
0 107 1
0 108 1
0 109 1
0 110 1
0 111 1
0 112 1
0 113 1
0 114 1
0 115 1
0 116 1
0 117 1
0 118 1
0 119 1
1 0 1
1 1 1
1 2 1
1 3 1
1 4 1
1 5 1
1 6 1
1 7 1
1 8 1
1 9 1
1 10 1
1 11 1
1 12 1
1 13 1
1 14 1
1 15 1
1 16 1
1 17 1
1 18 1
1 19 1
1 20 1
1 21 1
1 22 1
1 23 1
1 24 1
1 25 1
1 26 1
1 27 1
1 28 1
1 29 1
1 30 1
1 31 1
1 32 1
1 33 1
1 34 1
1 35 1
1 36 1
1 37 1
1 38 1
1 39 1
1 40 1
1 41 1
1 42 1
1 43 1
1 44 1
1 45 1
1 46 1
1 47 1
1 48 1
1 49 1
1 50 1
1 51 1
1 52 1
1 53 1
1 54 1
1 55 1
1 56 1
1 57 1
1 58 1
1 59 1
1 60 1
1 61 1
1 62 1
1 63 1
1 64 1
1 65 1
1 66 1
1 67 1
1 68 1
1 69 1
1 70 1
1 71 1
1 72 1
1 73 1
1 74 1
1 75 1
1 76 1
1 77 1
1 78 1
1 79 1
1 80 1
1 81 1
1 82 1
1 83 1
1 84 1
1 85 1
1 86 1
1 87 1
1 88 1
1 89 1
1 90 1
1 91 1
1 92 1
1 93 1
1 94 1
1 95 1
1 96 1
1 97 1
1 98 1
1 99 1
1 100 1
1 101 1
1 102 1
1 103 1
1 104 1
1 105 1
1 106 1
1 107 1
1 108 1
1 109 1
1 110 1
1 111 1
1 112 1
1 113 1
1 114 1
1 115 1
1 116 1
1 117 1
1 118 1
1 119 1
2 0 1
2 1 1
2 2 1
2 3 1
2 4 1
2 5 1
2 6 1
2 7 1
2 8 1
2 9 1
2 10 1
2 11 1
2 12 1
2 13 1
2 14 1
2 15 1
2 16 1
2 17 1
2 18 1
2 19 1
2 20 1
2 21 1
2 22 1
2 23 1
2 24 1
2 25 1
2 26 1
2 27 1
2 28 1
2 29 1
2 30 1
2 31 1
2 32 1
2 33 1
2 34 1
2 35 1
2 36 1
2 37 1
2 38 1
2 39 1
2 40 1
2 41 1
2 42 1
2 43 1
2 44 1
2 45 1
2 46 1
2 47 1
2 48 1
2 49 1
2 50 1
2 51 1
2 52 1
2 53 1
2 54 1
2 55 1
2 56 1
2 57 1
2 58 1
2 59 1
2 60 1
2 61 1
2 62 1
2 63 1
2 64 1
2 65 1
2 66 1
2 67 1
2 68 1
2 69 1
2 70 1
2 71 1
2 72 1
2 73 1
2 74 1
2 75 1
2 76 1
2 77 1
2 78 1
2 79 1
2 80 1
2 81 1
2 82 1
2 83 1
2 84 1
2 85 1
2 86 1
2 87 1
2 88 1
2 89 1
2 90 1
2 91 1
2 92 1
2 93 1
2 94 1
2 95 1
2 96 1
2 97 1
2 98 1
2 99 1
2 100 1
2 101 1
2 102 1
2 103 1
2 104 1
2 105 1
2 106 1
2 107 1
2 108 1
2 109 1
2 110 1
2 111 1
2 112 1
2 113 1
2 114 1
2 115 1
2 116 1
2 117 1
2 118 1
2 119 1
3 0 1
3 1 1
3 2 1
3 3 1
3 4 1
3 5 1
3 6 1
3 7 1
3 8 1
3 9 1
3 10 1
3 11 1
3 12 1
3 13 1
3 14 1
3 15 1
3 16 1
3 17 1
3 18 1
3 19 1
3 20 1
3 21 1
3 22 1
3 23 1
3 24 1
3 25 1
3 26 1
3 27 1
3 28 1
3 29 1
3 30 1
3 31 1
3 32 1
3 33 1
3 34 1
3 35 1
3 36 1
3 37 1
3 38 1
3 39 1
3 40 1
3 41 1
3 42 1
3 43 1
3 44 1
3 45 1
3 46 1
3 47 1
3 48 1
3 49 1
3 50 1
3 51 1
3 52 1
3 53 1
3 54 1
3 55 1
3 56 1
3 57 1
3 58 1
3 59 1
3 60 1
3 61 1
3 62 1
3 63 1
3 64 1
3 65 1
3 66 1
3 67 1
3 68 1
3 69 1
3 70 1
3 71 1
3 72 1
3 73 1
3 74 1
3 75 1
3 76 1
3 77 1
3 78 1
3 79 1
3 80 1
3 81 1
3 82 1
3 83 1
3 84 1
3 85 1
3 86 1
3 87 1
3 88 1
3 89 1
3 90 1
3 91 1
3 92 1
3 93 1
3 94 1
3 95 1
3 96 1
3 97 1
3 98 1
3 99 1
3 100 1
3 101 1
3 102 1
3 103 1
3 104 1
3 105 1
3 106 1
3 107 1
3 108 1
3 109 1
3 110 1
3 111 1
3 112 1
3 113 1
3 114 1
3 115 1
3 116 1
3 117 1
3 118 1
3 119 1
4 0 1
4 1 1
4 2 1
4 3 1
4 4 1
4 5 1
4 6 1
4 7 1
4 8 1
4 9 1
4 10 1
4 11 1
4 12 1
4 13 1
4 14 1
4 15 1
4 16 1
4 17 1
4 18 1
4 19 1
4 20 1
4 21 1
4 22 1
4 23 1
4 24 1
4 25 1
4 26 1
4 27 1
4 28 1
4 29 1
4 30 1
4 31 1
4 32 1
4 33 1
4 34 1
4 35 1
4 36 1
4 37 1
4 38 1
4 39 1
4 40 1
4 41 1
4 42 1
4 43 1
4 44 1
4 45 1
4 46 1
4 47 1
4 48 1
4 49 1
4 50 1
4 51 1
4 52 1
4 53 1
4 54 1
4 55 1
4 56 1
4 57 1
4 58 1
4 59 1
4 60 1
4 61 1
4 62 1
4 63 1
4 64 1
4 65 1
4 66 1
4 67 1
4 68 1
4 69 1
4 70 1
4 71 1
4 72 1
4 73 1
4 74 1
4 75 1
4 76 1
4 77 1
4 78 1
4 79 1
4 80 1
4 81 1
4 82 1
4 83 1
4 84 1
4 85 1
4 86 1
4 87 1
4 88 1
4 89 1
4 90 1
4 91 1
4 92 1
4 93 1
4 94 1
4 95 1
4 96 1
4 97 1
4 98 1
4 99 1
4 100 1
4 101 1
4 102 1
4 103 1
4 104 1
4 105 1
4 106 1
4 107 1
4 108 1
4 109 1
4 110 1
4 111 1
4 112 1
4 113 1
4 114 1
4 115 1
4 116 1
4 117 1
4 118 1
4 119 1
5 0 1
5 1 1
5 2 1
5 3 1
5 4 1
5 5 1
5 6 1
5 7 1
5 8 1
5 9 1
5 10 1
5 11 1
5 12 1
5 13 1
5 14 1
5 15 1
5 16 1
5 17 1
5 18 1
5 19 1
5 20 1
5 21 1
5 22 1
5 23 1
5 24 1
5 25 1
5 26 1
5 27 1
5 28 1
5 29 1
5 30 1
5 31 1
5 32 1
5 33 1
5 34 1
5 35 1
5 36 1
5 37 1
5 38 1
5 39 1
5 40 1
5 41 1
5 42 1
5 43 1
5 44 1
5 45 1
5 46 1
5 47 1
5 48 1
5 49 1
5 50 1
5 51 1
5 52 1
5 53 1
5 54 1
5 55 1
5 56 1
5 57 1
5 58 1
5 59 1
5 60 1
5 61 1
5 62 1
5 63 1
5 64 1
5 65 1
5 66 1
5 67 1
5 68 1
5 69 1
5 70 1
5 71 1
5 72 1
5 73 1
5 74 1
5 75 1
5 76 1
5 77 1
5 78 1
5 79 1
5 80 1
5 81 1
5 82 1
5 83 1
5 84 1
5 85 1
5 86 1
5 87 1
5 88 1
5 89 1
5 90 1
5 91 1
5 92 1
5 93 1
5 94 1
5 95 1
5 96 1
5 97 1
5 98 1
5 99 1
5 100 1
5 101 1
5 102 1
5 103 1
5 104 1
5 105 1
5 106 1
5 107 1
5 108 1
5 109 1
5 110 1
5 111 1
5 112 1
5 113 1
5 114 1
5 115 1
5 116 1
5 117 1
5 118 1
5 119 1
6 0 1
6 1 1
6 2 1
6 3 1
6 4 1
6 5 1
6 6 1
6 7 1
6 8 1
6 9 1
6 10 1
6 11 1
6 12 1
6 13 1
6 14 1
6 15 1
6 16 1
6 17 1
6 18 1
6 19 1
6 20 1
6 21 1
6 22 1
6 23 1
6 24 1
6 25 1
6 26 1
6 27 1
6 28 1
6 29 1
6 30 1
6 31 1
6 32 1
6 33 1
6 34 1
6 35 1
6 36 1
6 37 1
6 38 1
6 39 1
6 40 1
6 41 1
6 42 1
6 43 1
6 44 1
6 45 1
6 46 1
6 47 1
6 48 1
6 49 1
6 50 1
6 51 1
6 52 1
6 53 1
6 54 1
6 55 1
6 56 1
6 57 1
6 58 1
6 59 1
6 60 1
6 61 1
6 62 1
6 63 1
6 64 1
6 65 1
6 66 1
6 67 1
6 68 1
6 69 1
6 70 1
6 71 1
6 72 1
6 73 1
6 74 1
6 75 1
6 76 1
6 77 1
6 78 1
6 79 1
6 80 1
6 81 1
6 82 1
6 83 1
6 84 1
6 85 1
6 86 1
6 87 1
6 88 1
6 89 1
6 90 1
6 91 1
6 92 1
6 93 1
6 94 1
6 95 1
6 96 1
6 97 1
6 98 1
6 99 1
6 100 1
6 101 1
6 102 1
6 103 1
6 104 1
6 105 1
6 106 1
6 107 1
6 108 1
6 109 1
6 110 1
6 111 1
6 112 1
6 113 1
6 114 1
6 115 1
6 116 1
6 117 1
6 118 1
6 119 1
7 0 1
7 1 1
7 2 1
7 3 1
7 4 1
7 5 1
7 6 1
7 7 1
7 8 1
7 9 1
7 10 1
7 11 1
7 12 1
7 13 1
7 14 1
7 15 1
7 16 1
7 17 1
7 18 1
7 19 1
7 20 1
7 21 1
7 22 1
7 23 1
7 24 1
7 25 1
7 26 1
7 27 1
7 28 1
7 29 1
7 30 1
7 31 1
7 32 1
7 33 1
7 34 1
7 35 1
7 36 1
7 37 1
7 38 1
7 39 1
7 40 1
7 41 1
7 42 1
7 43 1
7 44 1
7 45 1
7 46 1
7 47 1
7 48 1
7 49 1
7 50 1
7 51 1
7 52 1
7 53 1
7 54 1
7 55 1
7 56 1
7 57 1
7 58 1
7 59 1
7 60 1
7 61 1
7 62 1
7 63 1
7 64 1
7 65 1
7 66 1
7 67 1
7 68 1
7 69 1
7 70 1
7 71 1
7 72 1
7 73 1
7 74 1
7 75 1
7 76 1
7 77 1
7 78 1
7 79 1
7 80 1
7 81 1
7 82 1
7 83 1
7 84 1
7 85 1
7 86 1
7 87 1
7 88 1
7 89 1
7 90 1
7 91 1
7 92 1
7 93 1
7 94 1
7 95 1
7 96 1
7 97 1
7 98 1
7 99 1
7 100 1
7 101 1
7 102 1
7 103 1
7 104 1
7 105 1
7 106 1
7 107 1
7 108 1
7 109 1
7 110 1
7 111 1
7 112 1
7 113 1
7 114 1
7 115 1
7 116 1
7 117 1
7 118 1
7 119 1
8 0 1
8 1 1
8 2 1
8 3 1
8 4 1
8 5 1
8 6 1
8 7 1
8 8 1
8 9 1
8 10 1
8 11 1
8 12 1
8 13 1
8 14 1
8 15 1
8 16 1
8 17 1
8 18 1
8 19 1
8 20 1
8 21 1
8 22 1
8 23 1
8 24 1
8 25 1
8 26 1
8 27 1
8 28 1
8 29 1
8 30 1
8 31 1
8 32 1
8 33 1
8 34 1
8 35 1
8 36 1
8 37 1
8 38 1
8 39 1
8 40 1
8 41 1
8 42 1
8 43 1
8 44 1
8 45 1
8 46 1
8 47 1
8 48 1
8 49 1
8 50 1
8 51 1
8 52 1
8 53 1
8 54 1
8 55 1
8 56 1
8 57 1
8 58 1
8 59 1
8 60 1
8 61 1
8 62 1
8 63 1
8 64 1
8 65 1
8 66 1
8 67 1
8 68 1
8 69 1
8 70 1
8 71 1
8 72 1
8 73 1
8 74 1
8 75 1
8 76 1
8 77 1
8 78 1
8 79 1
8 80 1
8 81 1
8 82 1
8 83 1
8 84 1
8 85 1
8 86 1
8 87 1
8 88 1
8 89 1
8 90 1
8 91 1
8 92 1
8 93 1
8 94 1
8 95 1
8 96 1
8 97 1
8 98 1
8 99 1
8 100 1
8 101 1
8 102 1
8 103 1
8 104 1
8 105 1
8 106 1
8 107 1
8 108 1
8 109 1
8 110 1
8 111 1
8 112 1
8 113 1
8 114 1
8 115 1
8 116 1
8 117 1
8 118 1
8 119 1
9 0 1
9 1 1
9 2 1
9 3 1
9 4 1
9 5 1
9 6 1
9 7 1
9 8 1
9 9 1
9 10 1
9 11 1
9 12 1
9 13 1
9 14 1
9 15 1
9 16 1
9 17 1
9 18 1
9 19 1
9 20 1
9 21 1
9 22 1
9 23 1
9 24 1
9 25 1
9 26 1
9 27 1
9 28 1
9 29 1
9 30 1
9 31 1
9 32 1
9 33 1
9 34 1
9 35 1
9 36 1
9 37 1
9 38 1
9 39 1
9 40 1
9 41 1
9 42 1
9 43 1
9 44 1
9 45 1
9 46 1
9 47 1
9 48 1
9 49 1
9 50 1
9 51 1
9 52 1
9 53 1
9 54 1
9 55 1
9 56 1
9 57 1
9 58 1
9 59 1
9 60 1
9 61 1
9 62 1
9 63 1
9 64 1
9 65 1
9 66 1
9 67 1
9 68 1
9 69 1
9 70 1
9 71 1
9 72 1
9 73 1
9 74 1
9 75 1
9 76 1
9 77 1
9 78 1
9 79 1
9 80 1
9 81 1
9 82 1
9 83 1
9 84 1
9 85 1
9 86 1
9 87 1
9 88 1
9 89 1
9 90 1
9 91 1
9 92 1
9 93 1
9 94 1
9 95 1
9 96 1
9 97 1
9 98 1
9 99 1
9 100 1
9 101 1
9 102 1
9 103 1
9 104 1
9 105 1
9 106 1
9 107 1
9 108 1
9 109 1
9 110 1
9 111 1
9 112 1
9 113 1
9 114 1
9 115 1
9 116 1
9 117 1
9 118 1
9 119 1
10 0 1
10 1 1
10 2 1
10 3 1
10 4 1
10 5 1
10 6 1
10 7 1
10 8 1
10 9 1
10 10 1
10 11 1
10 12 1
10 13 1
10 14 1
10 15 1
10 16 1
10 17 1
10 18 1
10 19 1
10 20 1
10 21 1
10 22 1
10 23 1
10 24 1
10 25 1
10 26 1
10 27 1
10 28 1
10 29 1
10 30 1
10 31 1
10 32 1
10 33 1
10 34 1
10 35 1
10 36 1
10 37 1
10 38 1
10 39 1
10 40 1
10 41 1
10 42 1
10 43 1
10 44 1
10 45 1
10 46 1
10 47 1
10 48 1
10 49 1
10 50 1
10 51 1
10 52 1
10 53 1
10 54 1
10 55 1
10 56 1
10 57 1
10 58 1
10 59 1
10 60 1
10 61 1
10 62 1
10 63 1
10 64 1
10 65 1
10 66 1
10 67 1
10 68 1
10 69 1
10 70 1
10 71 1
10 72 1
10 73 1
10 74 1
10 75 1
10 76 1
10 77 1
10 78 1
10 79 1
10 80 1
10 81 1
10 82 1
10 83 1
10 84 1
10 85 1
10 86 1
10 87 1
10 88 1
10 89 1
10 90 1
10 91 1
10 92 1
10 93 1
10 94 1
10 95 1
10 96 1
10 97 1
10 98 1
10 99 1
10 100 1
10 101 1
10 102 1
10 103 1
10 104 1
10 105 1
10 106 1
10 107 1
10 108 1
10 109 1
10 110 1
10 111 1
10 112 1
10 113 1
10 114 1
10 115 1
10 116 1
10 117 1
10 118 1
10 119 1
11 0 1
11 1 1
11 2 1
11 3 1
11 4 1
11 5 1
11 6 1
11 7 1
11 8 1
11 9 1
11 10 1
11 11 1
11 12 1
11 13 1
11 14 1
11 15 1
11 16 1
11 17 1
11 18 1
11 19 1
11 20 1
11 21 1
11 22 1
11 23 1
11 24 1
11 25 1
11 26 1
11 27 1
11 28 1
11 29 1
11 30 1
11 31 1
11 32 1
11 33 1
11 34 1
11 35 1
11 36 1
11 37 1
11 38 1
11 39 1
11 40 1
11 41 1
11 42 1
11 43 1
11 44 1
11 45 1
11 46 1
11 47 1
11 48 1
11 49 1
11 50 1
11 51 1
11 52 1
[...]
POINT_DATA 14400
SCALARS CON float 1
LOOKUP_TABLE default
1	1	1	1	1	1	1	1	1	1	1	1	1	1	1	1	1	1	1	1	0.868693	0.648363	0.459243	0.329668	0.251563	0.208479	0.186282	0.175473	0.170461	0.168237	0.16729	0.166903	0.166754	0.166704	0.166703	0.16674	0.16683	0.167016	0.167386	0.168091	0.169387	0.171685	0.175608	0.182053	0.19222	0.207608	0.229899	0.260723	0.30116	0.3507	0.404116	0.453154	0.502429	0.531473	0.531395	0.531311	0.531228	0.531153	0.531093	0.531054	0.53104	0.531054	0.531093	0.531153	0.531228	0.531311	0.531395	0.531473	0.502429	0.453154	0.404116	0.3507	0.30116	0.260723	0.229899	0.207608	0.19222	0.182053	0.175608	0.171685	0.169387	0.168091	0.167386	0.167016	0.16683	0.16674	0.166703	0.166704	0.166754	0.166903	0.16729	0.168237	0.170461	0.175473	0.186282	0.208479	0.251563	0.329668	0.459243	0.648363	0.868693	1	1	1	1	1	1	1	1	1	1	1	1	1	1	1	1	1	1	1	1	1	1	1	1	1	1	1	1	1	1	1	1	1	1	1	1	1	1	1	0.868693	0.648363	0.459243	0.329668	0.251562	0.208478	0.186281	0.175472	0.17046	0.168236	0.167289	0.166902	0.166752	0.166701	0.166696	0.166724	0.166797	0.166949	0.167251	0.16783	0.168902	0.170817	0.174114	0.179582	0.188304	0.201669	0.221306	0.248905	0.285832	0.332268	0.384948	0.432169	0.477302	0.500484	0.500473	0.500472	0.500476	0.500483	0.500489	0.500493	0.500495	0.500493	0.500489	0.500483	0.500476	0.500472	0.500473	0.500484	0.477302	0.432169	0.384948	0.332268	0.285832	0.248905	0.221306	0.201669	0.188304	0.179582	0.174114	0.170817	0.168902	0.16783	0.167251	0.166949	0.166797	0.166724	0.166696	0.166701	0.166752	0.166902	0.167289	0.168236	0.17046	0.175472	0.186281	0.208478	0.251562	0.329668	0.459243	0.648363	0.868693	1	1	1	1	1	1	1	1	1	1	1	1	1	1	1	1	1	1	1	1	1	1	1	1	1	1	1	1	1	1	1	1	1	1	1	1	1	1	1	0.858396	0.637965	0.451865	0.325193	0.249107	0.207227	0.18568	0.175197	0.170339	0.168185	0.167268	0.166894	0.166749	0.166702	0.166703	0.166742	0.166837	0.167036	0.16743	0.168188	0.169591	0.172098	0.176415	0.183563	0.194937	0.212289	0.237615	0.27286	0.319364	0.376727	0.44004	0.493747	0.537216	0.546155	0.546277	0.546453	0.546644	0.546816	0.54695	0.547034	0.547063	0.547034	0.54695	0.546816	0.546644	0.546453	0.546277	0.546155	0.537216	0.493747	0.44004	0.376727	0.319364	0.27286	0.237615	0.212289	0.194937	0.183563	0.176415	0.172098	0.169591	0.168188	0.16743	0.167036	0.166837	0.166742	0.166703	0.166702	0.166749	0.166894	0.167268	0.168185	0.170339	0.175197	0.18568	0.207227	0.249107	0.325193	0.451865	0.637965	0.858396	1	1	1	1	1	1	1	1	1	1	1	1	1	1	1	1	1	1	1	1	1	1	1	1	1	1	1	1	1	1	1	1	1	1	1	1	1	1	1	0.837105	0.617479	0.437551	0.31657	0.244394	0.204831	0.184531	0.174672	0.170109	0.168088	0.167228	0.166878	0.166746	0.166709	0.166726	0.166796	0.166958	0.167291	0.167954	0.169222	0.171565	0.175734	0.182868	0.194592	0.213046	0.2408	0.280526	0.334364	0.402805	0.482714	0.562932	0.620739	0.64633	0.64806	0.649576	0.650834	0.651841	0.652608	0.653147	0.653467	0.653572	0.653467	0.653147	0.652608	0.651841	0.650834	0.649576	0.64806	0.64633	0.620739	0.562932	0.482714	0.402805	0.334364	0.280526	0.2408	0.213046	0.194592	0.182868	0.175734	0.171565	0.169222	0.167954	0.167291	0.166958	0.166796	0.166726	0.166709	0.166746	0.166878	0.167228	0.168088	0.170109	0.174672	0.184531	0.204831	0.244394	0.31657	0.437551	0.617479	0.837105	1	1	1	1	1	1	1	1	1	1	1	1	1	1	1	1	1	1	1	1	1	1	1	1	1	1	1	1	1	1	1	1	1	1	1	1	1	1	0.990056	0.803065	0.587694	0.417181	0.304425	0.237797	0.201491	0.182933	0.173944	0.169791	0.167953	0.167173	0.166858	0.166744	0.166724	0.166768	0.166897	0.167179	0.167761	0.168912	0.171111	0.175154	0.182308	0.194461	0.214229	0.244917	0.29019	0.353277	0.435544	0.534227	0.638697	0.722352	0.76215	0.768436	0.773417	0.777298	0.780288	0.782544	0.784186	0.785302	0.785949	0.786162	0.785949	0.785302	0.784186	0.782544	0.780288	0.777298	0.773417	0.768436	0.76215	0.722352	0.638697	0.534227	0.435544	0.353277	0.29019	0.244917	0.214229	0.194461	0.182308	0.175154	0.171111	0.168912	0.167761	0.167179	0.166897	0.166768	0.166724	0.166744	0.166858	0.167173	0.167953	0.169791	0.173944	0.182933	0.201491	0.237797	0.304425	0.417181	0.587694	0.803065	0.990056	1	1	1	1	1	1	1	1	1	1	1	1	1	1	1	1	1	1	1	1	1	1	1	1	1	1	1	1	1	1	1	1	1	1	1	1	1	0.955516	0.757576	0.550038	0.392009	0.289616	0.229821	0.197474	0.181018	0.173073	0.169411	0.167793	0.167109	0.166836	0.166745	0.16675	0.166839	0.167061	0.167539	0.16852	0.170457	0.174142	0.180889	0.19275	0.212717	0.244788	0.293696	0.364026	0.458409	0.574577	0.701151	0.811574	0.861993	0.874186	0.883492	0.890495	0.89576	0.899695	0.902595	0.904667	0.906056	0.906854	0.907115	0.906854	0.906056	0.904667	0.902595	0.899695	0.89576	0.890495	0.883492	0.874186	0.861993	0.811574	0.701151	0.574577	0.458409	0.364026	0.293696	0.244788	0.212717	0.19275	0.180889	0.174142	0.170457	0.16852	0.167539	0.167061	0.166839	0.16675	0.166745	0.166836	0.167109	0.167793	0.169411	0.173073	0.181018	0.197474	0.229821	0.289616	0.392009	0.550038	0.757576	0.955516	1	1	1	1	1	1	1	1	1	1	1	1	1	1	1	1	1	1	1	1	1	1	1	1	1	1	1	1	1	1	1	1	1	1	1	1	1	0.909127	0.702128	0.506324	0.36358	0.273156	0.22104	0.193079	0.178932	0.172127	0.168999	0.167621	0.167041	0.166815	0.166753	0.166792	0.166948	0.167312	0.168087	0.169672	0.172793	0.178707	0.189474	0.208253	0.239512	0.288908	0.36246	0.464492	0.593913	0.738731	0.868952	0.931476	0.948243	0.959746	0.967423	0.972824	0.97673	0.979582	0.98165	0.983113	0.984086	0.984643	0.984824	0.984643	0.984086	0.983113	0.98165	0.979582	0.97673	0.972824	0.967423	0.959746	0.948243	0.931476	0.868952	0.738731	0.593913	0.464492	0.36246	0.288908	0.239512	0.208253	0.189474	0.178707	0.172793	0.169672	0.168087	0.167312	0.166948	0.166792	0.166753	0.166815	0.167041	0.167621	0.168999	0.172127	0.178932	0.193079	0.22104	0.273156	0.36358	0.506324	0.702128	0.909127	1	1	1	1	1	1	1	1	1	1	1	1	1	1	1	1	1	1	1	1	1	1	1	1	1	1	1	1	1	1	1	1	1	1	1	1	1	0.848635	0.638123	0.458806	0.333609	0.256099	0.212036	0.188604	0.176818	0.171172	0.168584	0.167448	0.166974	0.166797	0.16677	0.166857	0.167109	0.167678	0.168885	0.171343	0.176167	0.185265	0.201718	0.230133	0.276755	0.348867	0.452775	0.589544	0.748086	0.895926	0.970953	0.987664	0.998395	1	1	1	1	1	1	1	1	1	1	1	1	1	1	1	1	1	1	1	0.998395	0.987664	0.970953	0.895926	0.748086	0.589544	0.452775	0.348867	0.276755	0.230133	0.201718	0.185265	0.176167	0.171343	0.168885	0.167678	0.167109	0.166857	0.16677	0.166797	0.166974	0.167448	0.168584	0.171172	0.176818	0.188604	0.212036	0.256099	0.333609	0.458806	0.638123	0.848635	1	1	1	1	1	1	1	1	1	1	1	1	1	1	1	1	1	1	1	1	1	1	1	1	1	1	1	1	1	1	1	1	1	1	1	1	0.956562	0.769632	0.56851	0.41016	0.303821	0.239435	0.203335	0.184311	0.1748	0.170264	0.168192	0.167286	0.166913	0.166787	0.1668	0.166952	0.167337	0.168193	0.169999	0.173669	0.180843	0.194297	0.218426	0.259595	0.325918	0.425633	0.562869	0.729663	0.894617	0.988121	1	1	1	1	1	1	1	1	1	1	1	1	1	1	1	1	1	1	1	1	1	1	1	1	1	0.988121	0.894617	0.729663	0.562869	0.425633	0.325918	0.259595	0.218426	0.194297	0.180843	0.173669	0.169999	0.168193	0.167337	0.166952	0.1668	0.166787	0.166913	0.167286	0.168192	0.170264	0.1748	0.184311	0.203335	0.239435	0.303821	0.41016	0.56851	0.769632	0.956562	1	1	1	1	1	1	1	1	1	1	1	1	1	1	1	1	1	1	1	1	1	1	1	1	1	1	1	1	1	1	1	1	1	1	1	0.880747	0.680688	0.497704	0.36303	0.275741	0.223989	0.195358	0.180404	0.172974	0.169445	0.167839	0.167141	0.166862	0.166786	0.166847	0.167082	0.167646	0.168886	0.171496	0.176781	0.187064	0.206223	0.240247	0.297439	0.387466	0.51783	0.685897	0.865549	0.992465	1	1	1	1	1	1	1	1	1	1	1	1	1	1	1	1	1	1	1	1	1	1	1	1	1	1	1	0.992465	0.865549	0.685897	0.51783	0.387466	0.297439	0.240247	0.206223	0.187064	0.176781	0.171496	0.168886	0.167646	0.167082	0.166847	0.166786	0.166862	0.167141	0.167839	0.169445	0.172974	0.180404	0.195358	0.223989	0.275741	0.36303	0.497704	0.680688	0.880747	1	1	1	1	1	1	1	1	1	1	1	1	1	1	1	1	1	1	1	1	1	1	1	1	1	1	1	1	1	1	1	1	1	1	0.9558	0.781215	0.587587	0.429692	0.319679	0.250555	0.210353	0.18839	0.177016	0.171398	0.168742	0.167538	0.16702	0.166823	0.166795	0.166912	0.167254	0.168048	0.169783	0.173426	0.180776	0.195005	0.221312	0.267493	0.343737	0.460324	0.620954	0.80909	0.967894	1	1	1	1	1	1	1	1	1	1	1	1	1	1	1	1	1	1	1	1	1	1	1	1	1	1	1	1	1	0.967894	0.80909	0.620954	0.460324	0.343737	0.267493	0.221312	0.195005	0.180776	0.173426	0.169783	0.168048	0.167254	0.166912	0.166795	0.166823	0.16702	0.167538	0.168742	0.171398	0.177016	0.18839	0.210353	0.250555	0.319679	0.429692	0.587587	0.781215	0.9558	1	1	1	1	1	1	1	1	1	1	1	1	1	1	1	1	1	1	1	1	1	1	1	1	1	1	1	1	1	1	1	1	0.997003	0.859553	0.669785	0.49737	0.367986	0.281762	0.229015	0.19886	0.182575	0.174208	0.1701	0.168166	0.167293	0.166924	0.166797	0.166817	0.166998	0.16747	0.168548	0.170897	0.175813	0.185695	0.204714	0.239577	0.299967	0.397572	0.541576	0.727295	0.914842	1	1	1	1	1	1	1	1	1	1	1	1	1	1	1	1	1	1	1	1	1	1	1	1	1	1	1	1	1	1	1	0.914842	0.727295	0.541576	0.397572	0.299967	0.239577	0.204714	0.185695	0.175813	0.170897	0.168548	0.16747	0.166998	0.166817	0.166797	0.166924	0.167293	0.168166	0.1701	0.174208	0.182575	0.19886	0.229015	0.281762	0.367986	0.49737	0.669785	0.859553	0.997003	1	1	1	1	1	1	1	1	1	1	1	1	1	1	1	1	1	1	1	1	1	1	1	1	1	1	1	1	1	1	0.999408	0.910698	0.735793	0.558614	0.415789	0.314989	0.250179	0.211422	0.189596	0.177931	0.171981	0.169075	0.167713	0.167103	0.166851	0.166784	0.16685	0.167104	0.167729	0.169145	0.172221	0.178639	0.191488	0.216066	0.260694	0.336852	0.456951	0.626592	0.827076	0.989205	1	1	1	1	1	1	1	1	1	1	1	1	1	1	1	1	1	1	1	1	1	1	1	1	1	1	1	1	1	1	1	0.989205	0.827076	0.626592	0.456951	0.336852	0.260694	0.216066	0.191488	0.178639	0.172221	0.169145	0.167729	0.167104	0.16685	0.166784	0.166851	0.167103	0.167713	0.169075	0.171981	0.177931	0.189596	0.211422	0.250179	0.314989	0.415789	0.558614	0.735793	0.910698	0.999408	1	1	1	1	1	1	1	1	1	1	1	1	1	1	1	1	1	1	1	1	1	1	1	1	1	1	1	1	0.996216	0.935563	0.78021	0.606639	0.457531	0.34659	0.271811	0.225094	0.197682	0.182445	0.174375	0.170287	0.168299	0.167372	0.166961	0.166801	0.166781	0.166894	0.167227	0.168025	0.169825	0.173722	0.181833	0.198001	0.228729	0.283962	0.376698	0.518938	0.709626	0.908939	1	1	1	1	1	1	1	1	1	1	1	1	1	1	1	1	1	1	1	1	1	1	1	1	1	1	1	1	1	1	1	1	1	0.908939	0.709626	0.518938	0.376698	0.283962	0.228729	0.198001	0.181833	0.173722	0.169825	0.168025	0.167227	0.166894	0.166781	0.166801	0.166961	0.167372	0.168299	0.170287	0.174375	0.182445	0.197682	0.225094	0.271811	0.34659	0.457531	0.606639	0.78021	0.935563	0.996216	1	1	1	1	1	1	1	1	1	1	1	1	1	1	1	1	1	1	1	1	1	1	1	1	1	0.997595	0.983728	0.937904	0.800497	0.636427	0.488082	0.372571	0.291289	0.238376	0.20607	0.187411	0.177153	0.171764	0.169049	0.167736	0.167126	0.16686	0.166768	0.166788	0.166945	0.167362	0.168346	0.170559	0.175342	0.185266	0.204965	0.242157	0.308322	0.417524	0.58004	0.785345	0.970728	1	1	1	1	1	1	1	1	1	1	1	1	1	1	1	1	1	1	1	1	1	1	1	1	1	1	1	1	1	1	1	1	1	0.970728	0.785345	0.58004	0.417524	0.308322	0.242157	0.204965	0.185266	0.175342	0.170559	0.168346	0.167362	0.166945	0.166788	0.166768	0.16686	0.167126	0.167736	0.169049	0.171764	0.177153	0.187411	0.20607	0.238376	0.291289	0.372571	0.488082	0.636427	0.800497	0.937904	0.983728	0.997595	1	1	1	1	1	1	1	1	1	1	1	1	1	1	1	1	0.998605	0.996267	0.993119	0.988989	0.983561	0.976311	0.96629	0.951592	0.916824	0.795682	0.645044	0.503655	0.389404	0.305931	0.249498	0.213725	0.192281	0.180055	0.173397	0.169923	0.168181	0.167343	0.166956	0.166793	0.166749	0.166802	0.166999	0.167501	0.168676	0.171311	0.176994	0.188756	0.212007	0.255628	0.332441	0.457068	0.636902	0.849691	1	1	1	1	1	1	1	1	1	1	1	1	1	1	1	1	1	1	1	1	1	1	1	1	1	1	1	1	1	1	1	1	1	1	1	0.849691	0.636902	0.457068	0.332441	0.255628	0.212007	0.188756	0.176994	0.171311	0.168676	0.167501	0.166999	0.166802	0.166749	0.166793	0.166956	0.167343	0.168181	0.169923	0.173397	0.180055	0.192281	0.213725	0.249498	0.305931	0.389404	0.503655	0.645044	0.795682	0.916824	0.951592	0.96629	0.976311	0.983561	0.988989	0.993119	0.996267	0.998605	1	1	1	1	0.94059	0.94059	0.94017	0.939257	0.937679	0.935055	0.931408	0.926632	0.920501	0.912684	0.902721	0.890038	0.864279	0.765552	0.631813	0.502512	0.394865	0.313654	0.256854	0.219565	0.196406	0.182726	0.175009	0.170839	0.168676	0.167597	0.167079	0.166843	0.166749	0.16674	0.166818	0.167053	0.167635	0.168992	0.172031	0.178573	0.19208	0.218683	0.268299	0.354846	0.492996	0.686126	0.897105	1	1	1	1	1	1	1	1	1	1	1	1	1	1	1	1	1	1	1	1	1	1	1	1	1	1	1	1	1	1	1	1	1	1	1	0.897105	0.686126	0.492996	0.354846	0.268299	0.218683	0.19208	0.178573	0.172031	0.168992	0.167635	0.167053	0.166818	0.16674	0.166749	0.166843	0.167079	0.167597	0.168676	0.170839	0.175009	0.182726	0.196406	0.219565	0.256854	0.313654	0.394865	0.502512	0.631813	0.765552	0.864279	0.890038	0.902721	0.912684	0.920501	0.926632	0.931408	0.935055	0.937679	0.939257	0.94017	0.94059	0.832525	0.832525	0.831999	0.830897	0.829122	0.826558	0.823141	0.818771	0.813307	0.806568	0.798366	0.777542	0.71143	0.599253	0.485915	0.388981	0.313796	0.259598	0.222851	0.199253	0.184829	0.176408	0.1717	0.169172	0.167868	0.16722	0.16691	0.166771	0.166722	0.166736	0.166834	0.167102	0.167754	0.169271	0.172666	0.179963	0.194998	0.224517	0.279298	0.374072	0.52317	0.725614	0.931485	1	1	1	1	1	1	1	1	1	1	1	1	1	1	1	1	1	1	1	1	1	1	1	1	1	1	1	1	1	1	1	1	1	1	1	0.931485	0.725614	0.52317	0.374072	0.279298	0.224517	0.194998	0.179963	0.172666	0.169271	0.167754	0.167102	0.166834	0.166736	0.166722	0.166771	0.16691	0.16722	0.167868	0.169172	0.1717	0.176408	0.184829	0.199253	0.222851	0.259598	0.313796	0.388981	0.485915	0.599253	0.71143	0.777542	0.798366	0.806568	0.813307	0.818771	0.823141	0.826558	0.829122	0.830897	0.831999	0.832525	0.704141	0.704141	0.703766	0.702995	0.701791	0.700116	0.697935	0.695211	0.691903	0.687977	0.6723	0.640759	0.555194	0.459927	0.375544	0.308363	0.258603	0.223859	0.200839	0.186305	0.177533	0.172461	0.169646	0.168143	0.167371	0.166988	0.166807	0.166728	0.166707	0.166736	0.166848	0.16714	0.167848	0.169491	0.173164	0.181052	0.197279	0.229062	0.287819	0.388824	0.545912	0.754353	0.954953	1	1	1	1	1	1	1	1	1	1	1	1	1	1	1	1	1	1	1	1	1	1	1	1	1	1	1	1	1	1	1	1	1	1	1	0.954953	0.754353	0.545912	0.388824	0.287819	0.229062	0.197279	0.181052	0.173164	0.169491	0.167848	0.16714	0.166848	0.166736	0.166707	0.166728	0.166807	0.166988	0.167371	0.168143	0.169646	0.172461	0.177533	0.186305	0.200839	0.223859	0.258603	0.308363	0.375544	0.459927	0.555194	0.640759	0.6723	0.687977	0.691903	0.695211	0.697935	0.700116	0.701791	0.702995	0.703766	0.704141	0.588494	0.588494	0.588339	0.588023	0.587535	0.586863	0.585999	0.584939	0.583707	0.573832	0.554872	0.513594	0.438052	0.364752	0.304282	0.258249	0.225203	0.202652	0.187967	0.178816	0.173349	0.170212	0.168482	0.167562	0.167091	0.166859	0.166749	0.166704	0.166699	0.166737	0.166857	0.167165	0.167908	0.169631	0.173482	0.181747	0.198732	0.23195	0.293212	0.398098	0.56003	0.77179	0.968675	1	1	1	1	1	1	1	1	1	1	1	1	1	1	1	1	1	1	1	1	1	1	1	1	1	1	1	1	1	1	1	1	1	1	1	0.968675	0.77179	0.56003	0.398098	0.293212	0.23195	0.198732	0.181747	0.173482	0.169631	0.167908	0.167165	0.166857	0.166737	0.166699	0.166704	0.166749	0.166859	0.167091	0.167562	0.168482	0.170212	0.173349	0.178816	0.187967	0.202652	0.225203	0.258249	0.304282	0.364752	0.438052	0.513594	0.554872	0.573832	0.583707	0.584939	0.585999	0.586863	0.587535	0.588023	0.588339	0.588494	0.51536	0.51536	0.515348	0.515321	0.515276	0.515208	0.515113	0.514986	0.511577	0.497286	0.479878	0.440166	0.37606	0.316949	0.269687	0.234493	0.209643	0.192901	0.182106	0.175432	0.171469	0.169207	0.167963	0.167304	0.166967	0.166801	0.166724	0.166693	0.166695	0.166736	0.16686	0.167173	0.167928	0.169679	0.173591	0.181986	0.199231	0.232941	0.295059	0.401262	0.564815	0.777633	0.973196	1	1	1	1	1	1	1	1	1	1	1	1	1	1	1	1	1	1	1	1	1	1	1	1	1	1	1	1	1	1	1	1	1	1	1	0.973196	0.777633	0.564815	0.401262	0.295059	0.232941	0.199231	0.181986	0.173591	0.169679	0.167928	0.167173	0.16686	0.166736	0.166695	0.166693	0.166724	0.166801	0.166967	0.167304	0.167963	0.169207	0.171469	0.175432	0.182106	0.192901	0.209643	0.234493	0.269687	0.316949	0.37606	0.440166	0.479878	0.497286	0.511577	0.514986	0.515113	0.515208	0.515276	0.515321	0.515348	0.51536	0.50323	0.50323	0.503209	0.503166	0.503106	0.503032	0.502949	0.502864	0.495704	0.480173	0.463218	0.430801	0.371431	0.314691	0.268606	0.233997	0.209429	0.192817	0.182078	0.175426	0.17147	0.169209	0.167965	0.167305	0.166968	0.166801	0.166723	0.166693	0.166694	0.166735	0.166856	0.167164	0.167907	0.169631	0.173482	0.181747	0.198732	0.23195	0.293213	0.398099	0.560031	0.771791	0.968676	1	1	1	1	1	1	1	1	1	1	1	1	1	1	1	1	1	1	1	1	1	1	1	1	1	1	1	1	1	1	1	1	1	1	1	0.968676	0.771791	0.560031	0.398099	0.293213	0.23195	0.198732	0.181747	0.173482	0.169631	0.167907	0.167164	0.166856	0.166735	0.166694	0.166693	0.166723	0.166801	0.166968	0.167305	0.167965	0.169209	0.17147	0.175426	0.182078	0.192817	0.209429	0.233997	0.268606	0.314691	0.371431	0.430801	0.463218	0.480173	0.495704	0.502864	0.502949	0.503032	0.503106	0.503166	0.503209	0.50323	0.554021	0.554021	0.553806	0.55338	0.552754	0.551942	0.550975	0.54989	0.541253	0.523023	0.503035	0.479509	0.420047	0.355455	0.29952	0.25585	0.224022	0.202088	0.187705	0.178699	0.173299	0.170192	0.168473	0.167559	0.167089	0.166857	0.166748	0.166702	0.166696	0.166732	0.166846	0.167139	0.167847	0.169491	0.173163	0.181052	0.197279	0.229062	0.287819	0.388826	0.545914	0.754356	0.954955	1	1	1	1	1	1	1	1	1	1	1	1	1	1	1	1	1	1	1	1	1	1	1	1	1	1	1	1	1	1	1	1	1	1	1	0.954955	0.754356	0.545914	0.388826	0.287819	0.229062	0.197279	0.181052	0.173163	0.169491	0.167847	0.167139	0.166846	0.166732	0.166696	0.166702	0.166748	0.166857	0.167089	0.167559	0.168473	0.170192	0.173299	0.178699	0.187705	0.202088	0.224022	0.25585	0.29952	0.355455	0.420047	0.479509	0.503035	0.523023	0.541253	0.54989	0.550975	0.551942	0.552754	0.55338	0.553806	0.554021	0.653312	0.653312	0.652742	0.651599	0.649879	0.647585	0.64473	0.641351	0.634033	0.61219	0.585759	0.558413	0.510772	0.435611	0.36222	0.301103	0.254685	0.221774	0.199748	0.185744	0.177252	0.172323	0.16958	0.168112	0.167356	0.166981	0.166802	0.166724	0.166702	0.166728	0.16683	0.1671	0.167753	0.169271	0.172665	0.179963	0.194998	0.224517	0.279299	0.374075	0.523174	0.72562	0.93149	1	1	1	1	1	1	1	1	1	1	1	1	1	1	1	1	1	1	1	1	1	1	1	1	1	1	1	1	1	1	1	1	1	1	1	0.93149	0.72562	0.523174	0.374075	0.279299	0.224517	0.194998	0.179963	0.172665	0.169271	0.167753	0.1671	0.16683	0.166728	0.166702	0.166724	0.166802	0.166981	0.167356	0.168112	0.16958	0.172323	0.177252	0.185744	0.199748	0.221774	0.254685	0.301103	0.36222	0.435611	0.510772	0.558413	0.585759	0.61219	0.634033	0.641351	0.64473	0.647585	0.649879	0.651599	0.652742	0.653312	0.775748	0.775748	0.774806	0.772896	0.769968	0.765949	0.760752	0.7543	0.746579	0.726987	0.694141	0.656884	0.618694	0.545912	0.45506	0.371281	0.303731	0.25395	0.219739	0.197575	0.183947	0.175957	0.171475	0.169063	0.167816	0.167194	0.166897	0.166763	0.166715	0.166725	0.166812	0.16705	0.167634	0.168991	0.17203	0.178573	0.19208	0.218683	0.268301	0.35485	0.493003	0.686137	0.897116	1	1	1	1	1	1	1	1	1	1	1	1	1	1	1	1	1	1	1	1	1	1	1	1	1	1	1	1	1	1	1	1	1	1	1	0.897116	0.686137	0.493003	0.35485	0.268301	0.218683	0.19208	0.178573	0.17203	0.168991	0.167634	0.16705	0.166812	0.166725	0.166715	0.166763	0.166897	0.167194	0.167816	0.169063	0.171475	0.175957	0.183947	0.197575	0.219739	0.25395	0.303731	0.371281	0.45506	0.545912	0.618694	0.656884	0.694141	0.726987	0.746579	0.7543	0.760752	0.765949	0.769968	0.772896	0.774806	0.775748	0.89194	0.89194	0.890876	0.888697	0.885295	0.880494	0.874035	0.865571	0.854694	0.841346	0.810117	0.765769	0.716447	0.665204	0.570166	0.465661	0.373124	0.301034	0.249684	0.215593	0.194268	0.181608	0.174443	0.170561	0.168543	0.167534	0.167049	0.166827	0.166738	0.166726	0.166792	0.166995	0.167499	0.168674	0.17131	0.176994	0.188756	0.212009	0.255631	0.332448	0.45708	0.636921	0.849713	1	1	1	1	1	1	1	1	1	1	1	1	1	1	1	1	1	1	1	1	1	1	1	1	1	1	1	1	1	1	1	1	1	1	1	0.849713	0.636921	0.45708	0.332448	0.255631	0.212009	0.188756	0.176994	0.17131	0.168674	0.167499	0.166995	0.166792	0.166726	0.166738	0.166827	0.167049	0.167534	0.168543	0.170561	0.174443	0.181608	0.194268	0.215593	0.249684	0.301034	0.373124	0.465661	0.570166	0.665204	0.716447	0.765769	0.810117	0.841346	0.854694	0.865571	0.874035	0.880494	0.885295	0.888697	0.890876	0.89194	0.973959	0.973959	0.973235	0.97174	0.969368	