# vtk DataFile Version 2.0
output107.vtk
ASCII 
DATASET STRUCTURED_GRID
DIMENSIONS 120 200 1
POINTS 24000 float
0 0 1
0 1 1
0 2 1
0 3 1
0 4 1
0 5 1
0 6 1
0 7 1
0 8 1
0 9 1
0 10 1
0 11 1
0 12 1
0 13 1
0 14 1
0 15 1
0 16 1
0 17 1
0 18 1
0 19 1
0 20 1
0 21 1
0 22 1
0 23 1
0 24 1
0 25 1
0 26 1
0 27 1
0 28 1
0 29 1
0 30 1
0 31 1
0 32 1
0 33 1
0 34 1
0 35 1
0 36 1
0 37 1
0 38 1
0 39 1
0 40 1
0 41 1
0 42 1
0 43 1
0 44 1
0 45 1
0 46 1
0 47 1
0 48 1
0 49 1
0 50 1
0 51 1
0 52 1
0 53 1
0 54 1
0 55 1
0 56 1
0 57 1
0 58 1
0 59 1
0 60 1
0 61 1
0 62 1
0 63 1
0 64 1
0 65 1
0 66 1
0 67 1
0 68 1
0 69 1
0 70 1
0 71 1
0 72 1
0 73 1
0 74 1
0 75 1
0 76 1
0 77 1
0 78 1
0 79 1
0 80 1
0 81 1
0 82 1
0 83 1
0 84 1
0 85 1
0 86 1
0 87 1
0 88 1
0 89 1
0 90 1
0 91 1
0 92 1
0 93 1
0 94 1
0 95 1
0 96 1
0 97 1
0 98 1
0 99 1
0 100 1
0 101 1
0 102 1
0 103 1
0 104 1
0 105 1
0 106 1
0 107 1
0 108 1
0 109 1
0 110 1
0 111 1
0 112 1
0 113 1
0 114 1
0 115 1
0 116 1
0 117 1
0 118 1
0 119 1
1 0 1
1 1 1
1 2 1
1 3 1
1 4 1
1 5 1
1 6 1
1 7 1
1 8 1
1 9 1
1 10 1
1 11 1
1 12 1
1 13 1
1 14 1
1 15 1
1 16 1
1 17 1
1 18 1
1 19 1
1 20 1
1 21 1
1 22 1
1 23 1
1 24 1
1 25 1
1 26 1
1 27 1
1 28 1
1 29 1
1 30 1
1 31 1
1 32 1
1 33 1
1 34 1
1 35 1
1 36 1
1 37 1
1 38 1
1 39 1
1 40 1
1 41 1
1 42 1
1 43 1
1 44 1
1 45 1
1 46 1
1 47 1
1 48 1
1 49 1
1 50 1
1 51 1
1 52 1
1 53 1
1 54 1
1 55 1
1 56 1
1 57 1
1 58 1
1 59 1
1 60 1
1 61 1
1 62 1
1 63 1
1 64 1
1 65 1
1 66 1
1 67 1
1 68 1
1 69 1
1 70 1
1 71 1
1 72 1
1 73 1
1 74 1
1 75 1
1 76 1
1 77 1
1 78 1
1 79 1
1 80 1
1 81 1
1 82 1
1 83 1
1 84 1
1 85 1
1 86 1
1 87 1
1 88 1
1 89 1
1 90 1
1 91 1
1 92 1
1 93 1
1 94 1
1 95 1
1 96 1
1 97 1
1 98 1
1 99 1
1 100 1
1 101 1
1 102 1
1 103 1
1 104 1
1 105 1
1 106 1
1 107 1
1 108 1
1 109 1
1 110 1
1 111 1
1 112 1
1 113 1
1 114 1
1 115 1
1 116 1
1 117 1
1 118 1
1 119 1
2 0 1
2 1 1
2 2 1
2 3 1
2 4 1
2 5 1
2 6 1
2 7 1
2 8 1
2 9 1
2 10 1
2 11 1
2 12 1
2 13 1
2 14 1
2 15 1
2 16 1
2 17 1
2 18 1
2 19 1
2 20 1
2 21 1
2 22 1
2 23 1
2 24 1
2 25 1
2 26 1
2 27 1
2 28 1
2 29 1
2 30 1
2 31 1
2 32 1
2 33 1
2 34 1
2 35 1
2 36 1
2 37 1
2 38 1
2 39 1
2 40 1
2 41 1
2 42 1
2 43 1
2 44 1
2 45 1
2 46 1
2 47 1
2 48 1
2 49 1
2 50 1
2 51 1
2 52 1
2 53 1
2 54 1
2 55 1
2 56 1
2 57 1
2 58 1
2 59 1
2 60 1
2 61 1
2 62 1
2 63 1
2 64 1
2 65 1
2 66 1
2 67 1
2 68 1
2 69 1
2 70 1
2 71 1
2 72 1
2 73 1
2 74 1
2 75 1
2 76 1
2 77 1
2 78 1
2 79 1
2 80 1
2 81 1
2 82 1
2 83 1
2 84 1
2 85 1
2 86 1
2 87 1
2 88 1
2 89 1
2 90 1
2 91 1
2 92 1
2 93 1
2 94 1
2 95 1
2 96 1
2 97 1
2 98 1
2 99 1
2 100 1
2 101 1
2 102 1
2 103 1
2 104 1
2 105 1
2 106 1
2 107 1
2 108 1
2 109 1
2 110 1
2 111 1
2 112 1
2 113 1
2 114 1
2 115 1
2 116 1
2 117 1
2 118 1
2 119 1
3 0 1
3 1 1
3 2 1
3 3 1
3 4 1
3 5 1
3 6 1
3 7 1
3 8 1
3 9 1
3 10 1
3 11 1
3 12 1
3 13 1
3 14 1
3 15 1
3 16 1
3 17 1
3 18 1
3 19 1
3 20 1
3 21 1
3 22 1
3 23 1
3 24 1
3 25 1
3 26 1
3 27 1
3 28 1
3 29 1
3 30 1
3 31 1
3 32 1
3 33 1
3 34 1
3 35 1
3 36 1
3 37 1
3 38 1
3 39 1
3 40 1
3 41 1
3 42 1
3 43 1
3 44 1
3 45 1
3 46 1
3 47 1
3 48 1
3 49 1
3 50 1
3 51 1
3 52 1
3 53 1
3 54 1
3 55 1
3 56 1
3 57 1
3 58 1
3 59 1
3 60 1
3 61 1
3 62 1
3 63 1
3 64 1
3 65 1
3 66 1
3 67 1
3 68 1
3 69 1
3 70 1
3 71 1
3 72 1
3 73 1
3 74 1
3 75 1
3 76 1
3 77 1
3 78 1
3 79 1
3 80 1
3 81 1
3 82 1
3 83 1
3 84 1
3 85 1
3 86 1
3 87 1
3 88 1
3 89 1
3 90 1
3 91 1
3 92 1
3 93 1
3 94 1
3 95 1
3 96 1
3 97 1
3 98 1
3 99 1
3 100 1
3 101 1
3 102 1
3 103 1
3 104 1
3 105 1
3 106 1
3 107 1
3 108 1
3 109 1
3 110 1
3 111 1
3 112 1
3 113 1
3 114 1
3 115 1
3 116 1
3 117 1
3 118 1
3 119 1
4 0 1
4 1 1
4 2 1
4 3 1
4 4 1
4 5 1
4 6 1
4 7 1
4 8 1
4 9 1
4 10 1
4 11 1
4 12 1
4 13 1
4 14 1
4 15 1
4 16 1
4 17 1
4 18 1
4 19 1
4 20 1
4 21 1
4 22 1
4 23 1
4 24 1
4 25 1
4 26 1
4 27 1
4 28 1
4 29 1
4 30 1
4 31 1
4 32 1
4 33 1
4 34 1
4 35 1
4 36 1
4 37 1
4 38 1
4 39 1
4 40 1
4 41 1
4 42 1
4 43 1
4 44 1
4 45 1
4 46 1
4 47 1
4 48 1
4 49 1
4 50 1
4 51 1
4 52 1
4 53 1
4 54 1
4 55 1
4 56 1
4 57 1
4 58 1
4 59 1
4 60 1
4 61 1
4 62 1
4 63 1
4 64 1
4 65 1
4 66 1
4 67 1
4 68 1
4 69 1
4 70 1
4 71 1
4 72 1
4 73 1
4 74 1
4 75 1
4 76 1
4 77 1
4 78 1
4 79 1
4 80 1
4 81 1
4 82 1
4 83 1
4 84 1
4 85 1
4 86 1
4 87 1
4 88 1
4 89 1
4 90 1
4 91 1
4 92 1
4 93 1
4 94 1
4 95 1
4 96 1
4 97 1
4 98 1
4 99 1
4 100 1
4 101 1
4 102 1
4 103 1
4 104 1
4 105 1
4 106 1
4 107 1
4 108 1
4 109 1
4 110 1
4 111 1
4 112 1
4 113 1
4 114 1
4 115 1
4 116 1
4 117 1
4 118 1
4 119 1
5 0 1
5 1 1
5 2 1
5 3 1
5 4 1
5 5 1
5 6 1
5 7 1
5 8 1
5 9 1
5 10 1
5 11 1
5 12 1
5 13 1
5 14 1
5 15 1
5 16 1
5 17 1
5 18 1
5 19 1
5 20 1
5 21 1
5 22 1
5 23 1
5 24 1
5 25 1
5 26 1
5 27 1
5 28 1
5 29 1
5 30 1
5 31 1
5 32 1
5 33 1
5 34 1
5 35 1
5 36 1
5 37 1
5 38 1
5 39 1
5 40 1
5 41 1
5 42 1
5 43 1
5 44 1
5 45 1
5 46 1
5 47 1
5 48 1
5 49 1
5 50 1
5 51 1
5 52 1
5 53 1
5 54 1
5 55 1
5 56 1
5 57 1
5 58 1
5 59 1
5 60 1
5 61 1
5 62 1
5 63 1
5 64 1
5 65 1
5 66 1
5 67 1
5 68 1
5 69 1
5 70 1
5 71 1
5 72 1
5 73 1
5 74 1
5 75 1
5 76 1
5 77 1
5 78 1
5 79 1
5 80 1
5 81 1
5 82 1
5 83 1
5 84 1
5 85 1
5 86 1
5 87 1
5 88 1
5 89 1
5 90 1
5 91 1
5 92 1
5 93 1
5 94 1
5 95 1
5 96 1
5 97 1
5 98 1
5 99 1
5 100 1
5 101 1
5 102 1
5 103 1
5 104 1
5 105 1
5 106 1
5 107 1
5 108 1
5 109 1
5 110 1
5 111 1
5 112 1
5 113 1
5 114 1
5 115 1
5 116 1
5 117 1
5 118 1
5 119 1
6 0 1
6 1 1
6 2 1
6 3 1
6 4 1
6 5 1
6 6 1
6 7 1
6 8 1
6 9 1
6 10 1
6 11 1
6 12 1
6 13 1
6 14 1
6 15 1
6 16 1
6 17 1
6 18 1
6 19 1
6 20 1
6 21 1
6 22 1
6 23 1
6 24 1
6 25 1
6 26 1
6 27 1
6 28 1
6 29 1
6 30 1
6 31 1
6 32 1
6 33 1
6 34 1
6 35 1
6 36 1
6 37 1
6 38 1
6 39 1
6 40 1
6 41 1
6 42 1
6 43 1
6 44 1
6 45 1
6 46 1
6 47 1
6 48 1
6 49 1
6 50 1
6 51 1
6 52 1
6 53 1
6 54 1
6 55 1
6 56 1
6 57 1
6 58 1
6 59 1
6 60 1
6 61 1
6 62 1
6 63 1
6 64 1
6 65 1
6 66 1
6 67 1
6 68 1
6 69 1
6 70 1
6 71 1
6 72 1
6 73 1
6 74 1
6 75 1
6 76 1
6 77 1
6 78 1
6 79 1
6 80 1
6 81 1
6 82 1
6 83 1
6 84 1
6 85 1
6 86 1
6 87 1
6 88 1
6 89 1
6 90 1
6 91 1
6 92 1
6 93 1
6 94 1
6 95 1
6 96 1
6 97 1
6 98 1
6 99 1
6 100 1
6 101 1
6 102 1
6 103 1
6 104 1
6 105 1
6 106 1
6 107 1
6 108 1
6 109 1
6 110 1
6 111 1
6 112 1
6 113 1
6 114 1
6 115 1
6 116 1
6 117 1
6 118 1
6 119 1
7 0 1
7 1 1
7 2 1
7 3 1
7 4 1
7 5 1
7 6 1
7 7 1
7 8 1
7 9 1
7 10 1
7 11 1
7 12 1
7 13 1
7 14 1
7 15 1
7 16 1
7 17 1
7 18 1
7 19 1
7 20 1
7 21 1
7 22 1
7 23 1
7 24 1
7 25 1
7 26 1
7 27 1
7 28 1
7 29 1
7 30 1
7 31 1
7 32 1
7 33 1
7 34 1
7 35 1
7 36 1
7 37 1
7 38 1
7 39 1
7 40 1
7 41 1
7 42 1
7 43 1
7 44 1
7 45 1
7 46 1
7 47 1
7 48 1
7 49 1
7 50 1
7 51 1
7 52 1
7 53 1
7 54 1
7 55 1
7 56 1
7 57 1
7 58 1
7 59 1
7 60 1
7 61 1
7 62 1
7 63 1
7 64 1
7 65 1
7 66 1
7 67 1
7 68 1
7 69 1
7 70 1
7 71 1
7 72 1
7 73 1
7 74 1
7 75 1
7 76 1
7 77 1
7 78 1
7 79 1
7 80 1
7 81 1
7 82 1
7 83 1
7 84 1
7 85 1
7 86 1
7 87 1
7 88 1
7 89 1
7 90 1
7 91 1
7 92 1
7 93 1
7 94 1
7 95 1
7 96 1
7 97 1
7 98 1
7 99 1
7 100 1
7 101 1
7 102 1
7 103 1
7 104 1
7 105 1
7 106 1
7 107 1
7 108 1
7 109 1
7 110 1
7 111 1
7 112 1
7 113 1
7 114 1
7 115 1
7 116 1
7 117 1
7 118 1
7 119 1
8 0 1
8 1 1
8 2 1
8 3 1
8 4 1
8 5 1
8 6 1
8 7 1
8 8 1
8 9 1
8 10 1
8 11 1
8 12 1
8 13 1
8 14 1
8 15 1
8 16 1
8 17 1
8 18 1
8 19 1
8 20 1
8 21 1
8 22 1
8 23 1
8 24 1
8 25 1
8 26 1
8 27 1
8 28 1
8 29 1
8 30 1
8 31 1
8 32 1
8 33 1
8 34 1
8 35 1
8 36 1
8 37 1
8 38 1
8 39 1
8 40 1
8 41 1
8 42 1
8 43 1
8 44 1
8 45 1
8 46 1
8 47 1
8 48 1
8 49 1
8 50 1
8 51 1
8 52 1
8 53 1
8 54 1
8 55 1
8 56 1
8 57 1
8 58 1
8 59 1
8 60 1
8 61 1
8 62 1
8 63 1
8 64 1
8 65 1
8 66 1
8 67 1
8 68 1
8 69 1
8 70 1
8 71 1
8 72 1
8 73 1
8 74 1
8 75 1
8 76 1
8 77 1
8 78 1
8 79 1
8 80 1
8 81 1
8 82 1
8 83 1
8 84 1
8 85 1
8 86 1
8 87 1
8 88 1
8 89 1
8 90 1
8 91 1
8 92 1
8 93 1
8 94 1
8 95 1
8 96 1
8 97 1
8 98 1
8 99 1
8 100 1
8 101 1
8 102 1
8 103 1
8 104 1
8 105 1
8 106 1
8 107 1
8 108 1
8 109 1
8 110 1
8 111 1
8 112 1
8 113 1
8 114 1
8 115 1
8 116 1
8 117 1
8 118 1
8 119 1
9 0 1
9 1 1
9 2 1
9 3 1
9 4 1
9 5 1
9 6 1
9 7 1
9 8 1
9 9 1
9 10 1
9 11 1
9 12 1
9 13 1
9 14 1
9 15 1
9 16 1
9 17 1
9 18 1
9 19 1
9 20 1
9 21 1
9 22 1
9 23 1
9 24 1
9 25 1
9 26 1
9 27 1
9 28 1
9 29 1
9 30 1
9 31 1
9 32 1
9 33 1
9 34 1
9 35 1
9 36 1
9 37 1
9 38 1
9 39 1
9 40 1
9 41 1
9 42 1
9 43 1
9 44 1
9 45 1
9 46 1
9 47 1
9 48 1
9 49 1
9 50 1
9 51 1
9 52 1
9 53 1
9 54 1
9 55 1
9 56 1
9 57 1
9 58 1
9 59 1
9 60 1
9 61 1
9 62 1
9 63 1
9 64 1
9 65 1
9 66 1
9 67 1
9 68 1
9 69 1
9 70 1
9 71 1
9 72 1
9 73 1
9 74 1
9 75 1
9 76 1
9 77 1
9 78 1
9 79 1
9 80 1
9 81 1
9 82 1
9 83 1
9 84 1
9 85 1
9 86 1
9 87 1
9 88 1
9 89 1
9 90 1
9 91 1
9 92 1
9 93 1
9 94 1
9 95 1
9 96 1
9 97 1
9 98 1
9 99 1
9 100 1
9 101 1
9 102 1
9 103 1
9 104 1
9 105 1
9 106 1
9 107 1
9 108 1
9 109 1
9 110 1
9 111 1
9 112 1
9 113 1
9 114 1
9 115 1
9 116 1
9 117 1
9 118 1
9 119 1
10 0 1
10 1 1
10 2 1
10 3 1
10 4 1
10 5 1
10 6 1
10 7 1
10 8 1
10 9 1
10 10 1
10 11 1
10 12 1
10 13 1
10 14 1
10 15 1
10 16 1
10 17 1
10 18 1
10 19 1
10 20 1
10 21 1
10 22 1
10 23 1
10 24 1
10 25 1
10 26 1
10 27 1
10 28 1
10 29 1
10 30 1
10 31 1
10 32 1
10 33 1
10 34 1
10 35 1
10 36 1
10 37 1
10 38 1
10 39 1
10 40 1
10 41 1
10 42 1
10 43 1
10 44 1
10 45 1
10 46 1
10 47 1
10 48 1
10 49 1
10 50 1
10 51 1
10 52 1
10 53 1
10 54 1
10 55 1
10 56 1
10 57 1
10 58 1
10 59 1
10 60 1
10 61 1
10 62 1
10 63 1
10 64 1
10 65 1
10 66 1
10 67 1
10 68 1
10 69 1
10 70 1
10 71 1
10 72 1
10 73 1
10 74 1
10 75 1
10 76 1
10 77 1
10 78 1
10 79 1
10 80 1
10 81 1
10 82 1
10 83 1
10 84 1
10 85 1
10 86 1
10 87 1
10 88 1
10 89 1
10 90 1
10 91 1
10 92 1
10 93 1
10 94 1
10 95 1
10 96 1
10 97 1
10 98 1
10 99 1
10 100 1
10 101 1
10 102 1
10 103 1
10 104 1
10 105 1
10 106 1
10 107 1
10 108 1
10 109 1
10 110 1
10 111 1
10 112 1
10 113 1
10 114 1
10 115 1
10 116 1
10 117 1
10 118 1
10 119 1
11 0 1
11 1 1
11 2 1
11 3 1
11 4 1
11 5 1
11 6 1
11 7 1
11 8 1
11 9 1
11 10 1
11 11 1
11 12 1
11 13 1
11 14 1
11 15 1
11 16 1
11 17 1
11 18 1
11 19 1
11 20 1
11 21 1
11 22 1
11 23 1
11 24 1
11 25 1
11 26 1
11 27 1
11 28 1
11 29 1
11 30 1
11 31 1
11 32 1
11 33 1
11 34 1
11 35 1
11 36 1
11 37 1
11 38 1
11 39 1
11 40 1
11 41 1
11 42 1
11 43 1
11 44 1
11 45 1
11 46 1
11 47 1
11 48 1
11 49 1
11 50 1
11 51 1
11 52 1
[...]
POINT_DATA 24000
SCALARS CON float 1
LOOKUP_TABLE default
1	0.868986	0.843218	0.760501	0.702631	0.718196	0.70183	0.765451	0.910018	1	1	0.861732	0.955791	0.96212	0.918198	0.868911	0.843891	0.868568	0.887096	0.942616	0.953483	0.963035	0.948182	0.898126	0.862401	0.8896	0.921293	0.95424	0.987927	1	1	1	1	1	1	1	1	1	1	1	1	1	1	1	1	1	1	1	1	1	1	1	0.919508	0.898422	1	1	1	1	1	1	1	1	1	1	1	1	1	1	1	1	1	1	1	1	1	1	1	1	1	1	1	1	1	1	1	1	1	1	1	1	1	1	1	1	1	1	1	1	1	1	1	1	1	1	1	1	1	1	1	0.982991	1	0.913541	0.802244	0.791086	0.878774	1	1	1	1	1	0.772399	0.596277	0.615491	0.716141	0.763873	0.91863	0.955165	1	1	1	1	1	1	1	0.974093	0.916824	0.867868	0.866874	0.878285	0.928004	0.912389	0.888386	0.809288	0.699246	0.700978	0.711276	0.728803	0.747453	0.769568	0.800896	0.843934	0.906678	1	1	1	1	1	1	1	1	0.999051	1	1	1	1	1	1	1	1	1	1	0.999669	0.948779	1	1	1	1	1	1	1	1	1	1	1	1	1	1	1	1	1	1	1	1	1	1	1	1	1	1	1	1	1	1	1	1	1	1	1	1	1	1	1	1	1	1	1	1	1	1	1	1	1	1	1	1	1	1	0.992051	1	1	1	0.877503	0.761592	0.743158	0.809238	0.955555	1	1	1	0.772399	0.642439	0.427826	0.50956	0.752716	0.943496	1	1	1	1	1	1	1	1	1	1	1	0.989239	0.982372	0.991894	1	1	0.944831	0.750397	0.718523	0.691423	0.670336	0.656822	0.644918	0.640357	0.639086	0.654691	0.691564	0.777715	0.88128	1	1	1	1	1	1	1	1	1	0.99625	0.9863	0.979192	0.977665	0.980483	1	1	1	0.998921	0.989697	1	1	1	1	1	1	1	1	1	1	1	1	1	1	1	1	1	1	1	1	1	1	1	1	1	1	1	1	1	1	1	1	1	1	1	1	1	1	1	1	1	1	1	1	1	1	1	1	1	1	1	1	1	0.983169	1	1	1	1	0.964486	0.882805	0.886282	0.936417	1	1	1	0.940633	0.642439	0.763733	0.549676	0.608086	0.844708	1	1	1	1	1	1	1	1	1	1	0.99225	0.971895	0.954897	0.947877	0.950383	0.959158	0.973473	0.990113	0.978976	0.936394	0.895383	0.857595	0.821972	0.788899	0.758401	0.739232	0.734816	0.765329	0.839576	0.908151	0.966967	1	1	1	1	1	1	1	1	1	0.904762	0.890436	0.945405	0.972021	0.958999	1	0.945135	0.844496	0.877582	0.909054	1	1	1	1	1	1	1	1	1	1	1	1	1	1	1	1	1	1	1	1	1	1	1	1	1	1	1	1	1	1	1	1	1	1	1	1	1	1	1	1	1	1	1	1	1	1	1	1	1	1	0.989812	0.989442	1	1	1	1	1	1	1	1	1	1	1	1	1	0.763733	0.976932	0.825652	0.811157	0.9911	1	1	1	1	1	1	1	1	1	1	1	1	1	1	1	1	1	0.979477	0.98246	0.984292	0.990154	0.998416	1	0.995416	0.964651	0.93702	0.932716	0.963312	0.993579	1	1	1	1	1	1	1	1	1	1	0.966243	0.753136	0.697183	0.698873	0.841929	1	1	0.928685	0.8102	0.70359	0.726715	0.91841	1	1	1	1	1	1	1	1	1	1	1	1	1	1	1	1	1	1	1	1	1	1	1	1	1	1	1	1	1	1	1	1	1	1	1	1	1	1	1	1	1	1	1	1	1	1	1	0.996847	0.997847	1	1	1	1	1	1	1	1	1	1	1	1	1	1	1	0.976932	1	1	1	1	1	1	1	1	1	1	1	1	1	1	1	1	1	1	1	1	1	1	1	1	1	1	1	1	0.98969	0.974898	0.95893	0.944972	0.934848	0.928937	0.927485	0.938579	0.971666	1	1	1	1	1	0.894436	0.865173	0.710371	0.637368	0.604224	0.741905	0.999394	0.99326	0.868287	0.667827	0.557155	0.615338	0.822717	1	1	1	1	1	1	1	1	1	1	1	1	1	1	1	1	1	1	1	1	1	1	1	1	1	1	1	1	1	1	1	1	1	1	1	1	1	1	1	1	1	1	1	1	1	1	1	1	1	1	1	1	1	1	1	1	1	1	1	1	1	1	1	1	1	1	1	1	1	1	1	1	1	1	1	1	1	1	1	1	1	1	1	1	1	1	1	1	1	1	1	1	1	1	1	1	1	1	1	0.975024	0.958802	0.955979	0.961712	0.976067	1	1	1	1	0.928861	0.829558	0.779642	0.811201	0.974253	1	1	0.896461	0.70236	0.590343	0.616085	0.800128	1	1	1	1	1	1	1	1	1	1	1	1	1	1	1	1	1	1	1	1	1	1	1	1	1	1	1	1	1	1	1	1	1	1	1	1	1	1	1	1	1	1	1	1	1	1	1	1	1	1	1	1	0.992593	1	1	1	1	1	1	1	1	1	1	1	1	1	1	1	1	1	1	1	1	1	1	1	1	1	1	1	1	1	1	1	1	1	1	1	1	1	1	1	1	1	1	1	1	1	1	1	1	1	1	1	1	0.994291	0.99435	0.999117	1	1	1	1	1	1	1	1	0.92328	0.765265	0.728816	0.837623	1	1	0.996957	1	1	1	1	1	1	1	1	1	1	1	1	1	1	1	1	1	1	1	1	1	1	1	1	1	1	1	1	1	1	1	1	1	1	1	1	1	1	1	1	1	1	1	1	1	1	1	1	1	1	1	1	1	1	1	1	1	1	1	1	1	1	1	1	1	1	1	1	1	1	1	1	1	1	1	1	1	1	1	1	1	1	1	1	1	1	1	1	1	1	1	1	1	1	1	1	1	1	1	1	1	1	1	1	1	1	1	1	1	1	1	1	1	1	1	0.891753	0.98697	1	1	0.987028	1	1	1	1	1	1	1	1	1	1	1	1	1	1	1	1	1	1	1	1	1	1	1	1	1	1	1	1	1	1	1	1	1	1	1	1	1	1	1	1	1	1	1	1	0.989622	1	1	1	1	1	1	1	1	1	1	1	1	1	1	1	1	1	1	1	1	1	1	1	1	1	1	1	1	1	1	1	1	1	1	1	1	1	1	1	1	1	1	1	1	1	1	1	1	1	1	1	1	1	1	1	1	1	1	1	1	1	1	1	1	1	1	1	1	1	1	1	1	1	1	0.98864	0.986401	1	1	1	1	1	1	1	1	1	1	1	1	1	1	1	1	1	1	1	1	1	1	1	1	1	1	1	1	1	1	1	1	1	1	1	1	1	1	1	0.98517	1	1	1	1	1	1	1	1	1	1	1	1	1	1	1	1	1	1	1	1	1	1	1	1	0.971693	0.907549	1	1	1	1	1	1	1	1	1	1	1	1	1	1	1	1	1	1	1	1	1	1	1	1	1	1	1	1	1	1	1	1	1	1	1	1	1	1	1	1	1	1	1	1	1	1	1	1	1	1	0.885654	0.960505	1	0.982471	1	1	1	1	1	1	1	1	1	1	1	1	1	1	1	1	1	1	1	1	1	1	1	1	1	1	1	1	1	1	1	1	1	1	1	1	1	0.982047	0.922395	1	1	1	1	0.982062	0.984237	0.993406	1	1	1	1	1	1	1	1	1	1	1	1	1	1	1	1	1	1	0.890626	0.763063	0.831595	1	1	1	1	1	1	1	1	1	1	1	1	1	1	1	1	1	1	1	1	1	1	1	1	1	1	1	1	1	1	1	1	1	1	1	1	1	1	1	1	1	1	1	1	1	1	1	1	1	0.786491	0.696581	0.857616	0.983241	1	1	1	1	1	1	1	1	1	1	1	1	1	1	1	1	1	1	1	1	1	1	1	1	1	1	1	1	1	1	1	1	1	1	1	1	1	0.956527	0.977833	1	1	0.964528	0.963016	0.957831	1	1	1	1	1	1	1	1	1	1	1	1	1	1	1	1	1	1	1	1	0.814401	0.642439	0.643519	0.814872	1	1	1	1	1	1	1	1	1	1	1	1	1	1	1	1	1	1	1	1	1	1	1	1	1	1	1	1	1	1	1	1	1	1	1	1	1	1	1	1	1	1	1	1	1	1	1	1	0.820273	0.671918	0.70053	0.922534	1	1	1	1	1	1	1	1	1	1	1	1	1	1	1	1	1	1	1	1	1	1	1	1	1	1	1	1	1	1	0.994064	1	1	1	1	0.999952	1	1	0.998778	0.954969	0.954367	0.966994	1	1	1	1	1	1	1	1	1	1	1	1	1	1	1	1	1	1	1	1	1	1	0.79914	0.618747	0.599813	0.6879	0.840193	1	1	1	1	1	1	1	1	1	1	1	1	1	1	1	1	1	1	1	1	1	1	1	1	1	1	1	1	1	1	1	1	1	1	1	1	1	1	1	1	1	1	1	1	1	1	1	0.90283	0.698751	0.713928	0.831667	1	1	1	1	1	1	1	1	1	1	1	1	1	1	1	1	1	1	1	1	1	1	1	1	1	1	1	1	0.985557	0.978075	1	1	1	1	1	1	0.99555	0.949159	0.93515	0.955006	1	1	1	1	1	1	1	1	1	1	1	1	1	1	1	1	1	1	1	1	1	1	1	1	0.853551	0.711297	0.685425	0.739424	0.854992	0.972487	0.886451	0.92346	1	1	1	1	1	1	1	1	1	1	1	1	1	1	1	1	1	1	1	1	1	1	1	1	1	1	1	1	1	1	1	1	1	1	1	1	1	1	1	1	1	1	1	0.994513	1	0.881987	0.725002	0.764221	0.929553	1	1	1	1	1	1	1	1	1	1	1	1	1	1	1	1	1	1	1	1	1	1	1	1	1	1	0.953213	0.946066	0.999186	1	1	0.971185	1	1	1	0.938767	0.942592	0.962838	1	1	1	1	1	1	1	1	1	1	1	1	1	1	1	1	1	1	1	1	1	1	1	1	1	0.953577	0.858424	0.832881	0.863373	0.942636	0.977375	0.880345	0.963197	1	1	1	1	1	1	1	1	1	1	1	1	1	1	1	1	1	1	1	1	1	1	1	1	1	1	1	1	1	1	1	1	1	1	1	1	1	1	1	1	1	1	1	1	0.9876	0.96712	0.816747	0.778134	0.88404	1	1	1	1	1	1	1	1	1	1	1	1	1	1	1	1	1	1	1	1	1	1	1	1	0.980518	0.91849	0.909072	0.98823	1	1	1	1	1	1	0.960237	0.962193	1	1	1	1	1	1	1	1	1	1	1	1	1	1	1	1	1	1	1	1	1	1	1	1	1	1	1	1	0.959735	0.909384	0.946192	1	0.909706	0.972373	1	1	1	1	1	1	1	1	1	1	1	1	1	1	1	1	1	1	1	1	1	1	1	1	1	1	1	1	1	1	1	1	1	1	1	1	1	1	1	1	1	1	1	1	1	0.992455	0.985708	0.893748	0.80751	0.827345	0.961379	1	1	1	1	1	1	1	1	1	1	1	1	1	1	1	1	1	1	1	1	1	1	1	0.998756	1	0.990019	1	1	1	1	1	1	0.986356	0.997444	1	1	1	1	1	1	1	1	1	1	1	1	1	1	1	1	1	1	1	1	1	1	1	1	1	1	1	0.97855	0.941542	1	1	1	0.98094	0.933502	0.92931	1	1	0.902741	0.83212	0.910523	1	1	1	1	1	1	1	1	1	1	1	1	1	1	1	1	1	1	1	1	1	1	1	1	1	1	1	1	1	1	1	1	1	1	1	1	1	1	1	1	1	0.979358	0.957916	0.826679	0.765401	0.834838	0.933322	1	1	1	1	1	1	1	1	1	1	1	1	1	1	1	1	1	1	1	1	1	0.99054	0.952927	0.968559	0.930779	0.887115	1	1	1	1	1	1	1	1	1	1	1	1	1	1	1	1	1	1	1	1	1	1	1	1	1	1	1	1	1	1	1	1	1	0.98328	0.88372	0.833781	0.866252	0.996331	1	1	1	0.958309	0.95194	1	0.896261	0.802884	0.77994	0.891125	1	1	1	1	1	1	1	1	1	1	1	1	1	1	1	1	1	1	1	1	1	1	1	1	1	1	1	1	1	1	1	1	1	1	1	1	1	1	1	1	0.994966	1	0.829817	0.639407	0.591508	0.722571	0.919036	1	1	1	1	1	1	1	1	1	1	1	1	1	1	1	1	1	1	1	0.945853	0.856981	0.889631	0.978661	1	1	1	1	1	1	1	1	1	1	1	1	1	1	1	1	1	1	1	1	1	1	1	1	1	1	1	1	1	1	1	1	1	1	1	0.927012	0.783559	0.750314	0.936077	1	1	1	1	1	0.984583	0.971341	0.978563	0.900018	0.788049	0.732967	0.813126	0.926696	0.99391	1	1	1	1	1	1	1	1	1	1	1	1	1	1	1	1	1	1	1	1	1	1	1	1	1	1	1	1	1	1	1	1	1	1	1	1	1	1	1	0.80719	0.576352	0.476348	0.542375	0.73643	1	1	1	1	1	1	1	1	1	1	1	1	1	1	1	1	1	1	0.972199	0.753637	0.748478	0.925707	1	1	1	1	0.998624	1	1	1	1	1	1	1	1	1	1	1	1	1	1	1	1	1	1	1	1	1	1	1	1	1	1	1	1	1	1	1	0.913219	0.769137	0.817717	0.983398	1	1	1	1	1	1	1	0.979798	0.99947	0.933136	0.790676	0.621306	0.680444	0.799662	0.948291	1	1	1	1	1	1	1	1	1	1	1	1	1	1	1	1	1	1	1	1	1	1	1	1	1	1	1	1	1	1	1	1	1	1	1	1	1	1	0.848455	0.580286	0.407413	0.42629	0.611474	0.90773	1	1	1	1	1	1	1	1	1	1	1	1	1	1	1	1	1	0.768764	0.727852	0.782456	0.99857	1	1	0.996073	1	1	1	1	1	1	1	1	1	1	1	1	1	1	1	1	1	1	1	1	1	1	1	1	1	1	1	1	1	1	1	1	0.984943	0.885683	0.799359	0.875405	1	1	1	1	1	1	1	1	1	0.980098	0.987165	0.936951	0.759716	0.598566	0.643803	0.80356	1	1	1	1	1	1	1	1	1	1	1	1	1	1	1	1	1	1	1	1	1	1	1	1	1	1	1	1	1	1	1	1	1	1	1	1	1	1	0.909856	0.624354	0.438502	0.428238	0.569602	0.817083	1	1	1	1	1	1	1	1	1	1	1	1	1	1	1	1	0.944467	0.839708	0.890667	0.939414	0.995737	0.987751	0.998062	1	1	1	1	1	1	1	1	1	1	1	1	1	1	1	1	1	1	1	1	1	1	1	1	1	1	1	1	1	1	1	1	0.984778	0.921555	0.863971	0.834921	0.920426	1	1	1	1	1	1	1	1	1	1	0.977694	0.974951	0.852318	0.675343	0.622754	0.707311	0.98683	1	1	1	1	1	1	1	1	1	1	1	1	1	1	1	1	1	1	1	1	1	1	1	1	1	1	1	1	1	1	1	1	1	1	1	1	1	0.970784	0.718469	0.561432	0.543193	0.638751	0.812731	0.9321	0.94537	1	1	1	1	1	1	1	1	1	1	1	1	1	0.932367	1	0.998582	0.997394	0.973228	0.980805	1	1	1	1	1	1	1	1	1	1	1	1	1	1	1	1	1	1	1	1	1	1	1	1	1	1	1	1	1	1	1	1	1	1	0.921154	0.894981	0.866277	0.87475	0.957029	1	1	1	1	1	1	1	1	1	1	1	0.975747	0.955908	0.844027	0.710977	0.720988	0.891355	1	1	1	1	1	1	1	1	1	1	1	1	1	1	1	1	1	1	1	1	1	1	1	1	1	1	1	1	1	1	1	1	1	1	1	1	1	0.997159	0.815099	0.739664	0.723395	0.751278	0.766886	0.800441	0.723782	0.786979	1	1	1	1	1	1	1	1	1	1	1	1	1	1	0.968349	0.968581	0.99622	1	1	1	1	1	1	1	1	1	1	1	1	1	1	1	1	1	1	1	1	1	1	1	1	1	1	1	1	1	1	1	1	1	1	1	0.893841	0.89015	0.900844	0.913422	0.985084	1	1	1	1	1	1	1	1	1	1	1	1	0.964607	0.958874	0.886568	0.889753	0.891272	0.928677	0.993417	1	1	1	1	1	1	1	1	1	1	1	1	1	1	1	1	1	1	1	1	1	1	1	1	1	1	1	1	1	1	1	1	1	1	1	0.953293	0.845656	0.803643	0.766687	0.772167	0.775367	0.703077	0.526641	0.599931	0.841181	1	1	1	1	1	1	1	1	1	1	1	1	0.964435	0.969198	1	1	1	1	1	1	1	1	1	1	1	1	1	1	1	1	1	1	1	1	1	1	1	1	1	1	1	1	1	1	1	1	1	1	1	1	1	0.889768	0.887074	0.941233	0.94277	1	1	1	1	1	1	1	1	1	1	1	1	1	1	0.982738	0.953287	0.956543	0.903125	0.883619	0.898695	1	1	1	1	1	1	1	1	1	1	1	1	1	1	1	1	1	1	1	1	1	1	1	1	1	1	1	1	1	1	1	1	1	1	1	0.815696	0.760087	0.777443	0.802227	0.827209	0.777836	0.642811	0.401971	0.43648	0.556711	0.873311	1	1	1	1	1	1	1	1	1	1	0.995166	0.983566	1	1	1	1	1	1	1	1	1	1	1	1	1	1	1	1	1	1	1	1	1	1	1	1	1	1	1	1	1	1	1	1	1	1	1	1	1	1	0.886968	0.91374	0.9894	0.960107	1	1	1	1	1	1	1	1	1	1	1	1	1	1	1	0.996322	0.942679	0.908004	0.942509	0.939283	0.946356	1	1	1	1	1	1	1	1	1	1	1	1	1	1	1	1	1	1	1	1	1	1	1	1	1	1	1	1	1	1	1	1	1	1	0.791527	0.591002	0.671717	0.753652	0.795112	0.776493	0.652727	0.430614	0.384054	0.467313	0.747036	0.89706	0.91903	0.85132	0.787516	0.770697	0.922149	1	1	1	1	0.997598	1	1	1	1	1	1	1	1	1	1	1	1	1	1	1	1	1	1	1	1	1	1	1	1	1	1	1	1	1	1	1	1	1	1	1	1	1	1	1	0.913706	0.958808	1	0.970527	1	1	1	1	1	1	1	1	1	1	1	1	1	1	1	1	1	0.912588	0.864521	0.913494	0.954698	0.996878	1	1	1	1	1	1	1	1	1	1	1	1	1	1	1	1	1	1	1	1	1	1	1	1	1	1	1	1	1	1	1	1	0.943252	0.677126	0.527877	0.505468	0.664238	0.768861	0.79957	0.740264	0.563084	0.538236	0.559775	0.716214	0.789618	0.647236	0.48908	0.487244	0.617735	0.827556	1	1	1	1	1	1	1	1	1	1	1	1	1	1	1	1	1	1	1	1	1	1	1	1	1	1	1	1	1	1	1	1	1	1	1	1	1	1	1	1	1	1	1	1	0.958784	1	1	0.978053	1	1	1	1	1	1	1	1	1	1	1	1	1	1	1	1	1	1	0.913136	0.848355	0.870204	0.992579	1	1	1	1	1	1	1	1	1	1	1	1	1	1	1	1	1	1	1	1	1	1	1	1	1	1	1	1	1	1	1	1	0.931044	0.658573	0.497963	0.455401	0.561969	0.768506	0.873038	0.886847	0.779636	0.770774	0.751272	0.83969	0.815574	0.609199	0.462927	0.497848	0.655504	0.914823	1	1	1	1	1	1	1	1	1	1	1	1	1	1	1	1	1	1	1	1	1	1	1	1	1	1	1	1	1	1	1	1	1	1	1	1	1	1	1	1	1	1	1	1	1	1	1	0.985782	1	1	1	1	1	1	1	1	1	1	1	1	1	1	1	1	1	1	1	0.912717	0.857032	0.927463	0.940953	0.917498	0.963734	1	1	1	1	1	1	1	1	1	1	1	1	1	1	1	1	1	1	1	1	1	1	1	1	1	1	1	1	1	0.923853	0.68288	0.520109	0.491255	0.59956	0.791743	0.971861	1	0.992894	0.967304	0.965226	0.926884	0.907746	0.708097	0.637045	0.625482	0.716185	0.916489	1	1	1	1	1	1	1	1	1	1	1	1	1	1	1	1	1	1	1	1	1	1	1	1	1	1	1	1	1	1	1	1	1	1	1	1	1	1	1	1	1	1	1	1	1	1	1	0.99221	1	1	1	1	1	1	1	1	1	1	1	1	1	1	1	1	1	1	1	1	0.847456	0.863876	0.866199	0.783613	0.756515	0.867019	1	1	1	1	1	1	1	1	1	1	1	1	1	1	1	1	1	1	1	1	1	1	1	1	1	1	1	1	0.937667	0.721912	0.593414	0.608698	0.727769	0.887622	1	1	1	1	1	1	1	0.922674	0.773215	0.677887	0.715061	0.875982	1	1	1	1	1	1	1	1	1	1	1	1	1	1	1	1	1	1	1	1	1	1	1	1	1	1	1	1	1	1	1	1	1	1	1	1	1	1	1	1	1	1	1	1	1	1	1	0.997601	1	1	1	1	1	1	1	1	1	1	1	1	1	1	1	1	1	1	1	1	1	0.910527	0.871378	0.832415	0.741513	0.745047	0.919697	1	1	1	1	1	1	1	1	1	1	1	1	1	1	1	1	1	1	1	1	1	1	1	1	1	1	1	0.94956	0.781649	0.692176	0.751432	0.854555	0.953645	1	1	1	1	1	1	1	0.984282	0.851914	0.720637	0.69656	0.80742	1	1	1	1	1	1	1	1	1	1	1	1	1	1	1	1	1	1	1	1	1	1	1	1	1	1	1	1	1	1	1	1	1	1	1	1	1	1	1	1	1	1	1	1	1	1	1	1	1	1	1	1	1	1	1	1	1	1	1	1	1	1	1	1	1	1	1	1	1	1	0.91017	0.872421	0.845079	0.86034	0.942295	1	1	1	1	1	1	1	1	1	1	1	1	1	1	1	1	1	1	1	1	1	1	1	1	1	1	0.977722	0.831762	0.774672	0.789716	0.857257	0.964388	1	1	1	1	1	1	1	1	0.943718	0.869859	0.730294	0.66904	0.733076	0.883259	1	1	1	1	1	1	1	1	1	1	1	1	1	1	1	1	1	1	1	1	1	1	1	1	1	1	1	1	1	1	1	1	1	1	1	1	1	1	1	1	1	1	1	1	0.999543	1	1	1	1	1	1	1	1	1	1	1	1	1	1	1	1	1	1	1	1	1	1	1	1	0.991924	0.911319	0.903826	0.931456	1	1	1	1	1	1	1	1	1	1	1	1	1	1	1	1	1	1	1	1	1	1	1	1	1	1	1	0.8628	0.721021	0.696752	0.771158	0.854038	0.958327	1	1	1	1	1	1	1	1	0.942963	0.77222	0.605241	0.519542	0.551133	0.662604	0.814922	0.904778	1	1	1	1	1	1	1	1	1	1	1	1	1	1	1	1	1	1	1	1	1	1	1	1	1	1	1	1	1	1	1	1	1	1	1	1	1	1	1	1	1	0.99954	0.968356	1	1	1	1	1	1	1	1	1	1	1	1	1	1	1	1	1	1	1	1	1	1	1	1	1	0.979294	0.900633	0.893936	1	1	1	1	1	1	1	1	1	1	1	1	1	1	1	1	1	1	1	1	1	1	1	1	1	1	0.985785	0.787412	0.629869	0.639626	0.748075	0.870193	1	1	1	1	1	1	1	1	0.977414	0.901517	0.757052	0.620303	0.56676	0.608307	0.675749	0.698113	0.761639	0.801552	0.90076	0.972044	1	1	1	1	1	1	1	1	1	1	1	1	1	1	1	1	1	1	1	1	1	1	1	1	1	1	1	1	1	1	1	1	1	1	1	1	1	0.919905	0.968355	0.945197	1	1	1	1	1	1	1	1	1	1	1	1	1	1	1	1	1	1	1	1	1	1	1	1	1	1	0.960428	0.878733	0.89302	1	1	1	1	1	1	1	1	1	1	1	1	1	1	1	1	1	1	1	1	1	1	1	1	1	0.876032	0.689793	0.578133	0.594565	0.761855	0.945144	1	1	1	1	1	1	1	0.973849	0.816554	0.796962	0.756282	0.731389	0.763022	0.824537	0.7954	0.68957	0.654931	0.573118	0.601693	0.688772	0.976797	1	1	1	1	1	1	1	1	1	1	1	1	1	1	1	1	1	1	1	1	1	1	1	1	1	1	1	1	1	1	1	1	1	1	1	1	0.889992	0.945197	0.927003	1	1	1	1	1	1	1	1	1	1	1	1	1	1	1	1	1	1	1	1	1	1	1	1	1	1	1	0.931982	0.843479	0.933386	1	1	1	1	1	1	1	1	1	1	1	1	1	1	1	1	1	1	1	1	1	1	1	0.975331	0.671523	0.546338	0.516231	0.65553	0.857846	0.999875	1	1	1	1	1	1	1	0.917427	0.747336	0.624427	0.758661	0.873167	0.989174	1	0.936168	0.825456	0.676024	0.485002	0.448049	0.546106	0.757092	1	1	1	1	1	1	1	1	1	1	1	1	1	1	1	1	1	1	1	1	1	1	1	1	1	1	1	1	1	1	1	1	1	1	1	0.991684	0.884662	0.927003	0.766699	1	1	1	1	1	1	1	1	1	1	1	1	1	1	1	1	1	1	1	1	1	1	1	1	1	1	1	1	0.877781	0.80056	1	1	1	1	1	1	1	1	1	1	1	1	1	1	1	1	1	1	1	1	1	1	1	0.904815	0.720557	0.626434	0.611328	0.751992	0.937418	1	1	1	1	1	1	1	1	0.861585	0.689606	0.573407	0.69623	0.980869	1	1	1	0.990643	0.841976	0.647587	0.565243	0.585974	0.705929	0.948867	0.943975	0.927	0.940893	1	1	1	1	1	1	1	1	1	1	1	1	1	1	1	1	1	1	1	1	1	1	1	1	1	1	1	1	1	1	1	0.88481	0.667128	0.766699	0.639424	0.990248	1	1	1	1	1	1	1	1	1	1	1	1	1	1	1	1	1	1	1	1	1	1	1	1	1	1	1	0.954499	0.985619	1	0.995616	1	1	1	1	1	1	1	1	1	1	1	1	1	1	1	1	1	1	1	1	0.895777	0.733824	0.617928	0.624254	0.753052	0.882891	0.995793	1	1	1	1	1	1	1	0.989518	0.849239	0.689829	0.636429	0.743095	1	1	1	1	1	0.916057	0.75167	0.699925	0.767997	0.892203	0.940119	0.865307	0.663637	0.539682	0.734819	1	1	1	1	1	1	1	1	1	1	1	1	1	1	1	1	1	1	1	1	1	1	1	1	1	1	1	1	1	0.99209	0.715484	0.46369	0.639424	0.547575	0.910164	1	1	1	1	1	1	1	1	1	1	1	1	1	1	1	1	1	1	1	1	1	1	1	1	1	1	1	1	0.933357	0.779888	0.672463	0.682765	0.813842	1	1	1	1	1	1	1	1	1	1	1	1	1	1	1	1	0.984546	0.821517	0.674976	0.531313	0.479291	0.567854	0.773216	0.97824	1	1	1	1	1	1	1	1	0.990697	0.922622	0.771681	0.714558	0.811293	1	1	1	1	1	0.915838	0.754518	0.735275	0.838564	0.955633	1	1	0.84378	0.822811	0.769717	0.936687	1	1	1	1	1	1	1	1	1	1	1	1	1	1	1	1	1	1	1	1	1	1	1	1	1	1	1	1	0.905135	0.529389	0.37014	0.547575	0.499442	0.850985	1	1	1	1	1	1	1	1	1	1	1	1	1	1	1	1	1	1	1	1	1	1	1	1	1	1	1	1	0.88617	0.673635	0.570146	0.533911	0.624945	0.856123	1	1	1	1	1	1	1	1	1	1	1	1	1	1	0.958816	0.834592	0.621416	0.479502	0.370057	0.36039	0.495956	0.736742	0.955101	1	1	1	1	1	1	1	1	1	0.850145	0.664345	0.582266	0.737651	0.936177	1	1	1	0.970664	0.828903	0.697736	0.705308	0.84431	0.987374	1	1	0.978187	0.955285	0.879067	0.775126	0.648827	0.838446	0.979803	1	1	1	1	1	1	1	1	1	1	1	1	1	1	1	1	1	1	1	1	1	1	1	1	1	0.853356	0.45199	0.335535	0.499442	0.518895	0.83372	1	1	1	1	1	1	1	1	1	1	1	1	1	1	1	1	1	1	1	1	1	1	1	1	1	1	0.933203	1	0.96908	0.847593	0.715917	0.648668	0.650591	0.762448	1	1	1	1	1	1	1	1	1	1	1	1	1	0.926096	0.792724	0.749863	0.590003	0.48599	0.409432	0.407393	0.527844	0.744413	0.956012	1	1	1	1	1	1	1	1	0.923473	0.716104	0.55959	0.463896	0.61644	0.743522	0.830765	0.89134	0.884384	0.73896	0.618091	0.507287	0.584025	0.784928	0.956322	1	1	1	0.979199	0.791787	0.699136	0.620476	0.559126	0.705482	1	1	1	1	1	1	1	1	1	1	1	1	1	1	1	1	1	1	1	1	1	1	1	1	1	0.829513	0.487062	0.382148	0.518894	0.592733	0.854438	1	1	1	1	1	1	1	1	1	1	1	1	1	1	1	1	1	1	1	1	1	1	1	1	0.979749	0.966853	0.963698	1	1	1	0.908233	0.826939	0.801597	0.841389	1	1	1	0.970231	0.950576	0.898547	0.877427	0.980059	1	1	1	1	1	0.942722	0.891399	0.867534	0.742381	0.659499	0.577574	0.532668	0.578384	0.71955	0.87927	0.935205	1	1	1	1	1	1	1	0.885545	0.68198	0.533977	0.45116	0.486684	0.557885	0.632031	0.726264	0.695019	0.547159	0.511008	0.446299	0.49222	0.672207	0.813799	0.918593	1	1	0.926229	0.701687	0.662349	0.572979	0.66293	0.875228	1	1	1	1	1	1	1	1	1	0.997664	1	1	1	1	1	1	1	1	1	1	1	1	1	1	1	0.848925	0.58931	0.499247	0.592731	0.692528	0.832396	1	1	1	1	1	1	1	1	1	1	1	1	1	1	1	1	1	1	1	1	1	1	0.991673	0.990201	1	1	1	1	1	1	1	0.958121	0.911796	0.926923	1	1	0.94366	0.78082	0.669292	0.58691	0.617786	0.805541	0.895425	0.933921	1	1	1	1	1	1	0.953042	0.904432	0.815071	0.726483	0.704193	0.671945	0.7307	0.929712	1	1	1	1	1	1	1	0.897565	0.70963	0.587294	0.52644	0.452552	0.541696	0.54467	0.632234	0.620514	0.51539	0.524744	0.615973	0.684174	0.767521	0.895932	0.873025	1	0.908988	0.889122	0.713611	0.708897	0.744434	0.850456	1	1	1	1	1	1	1	1	1	1	1	1	0.999279	1	1	1	1	1	1	1	1	1	1	1	1	1	0.919238	0.724951	0.648434	0.692513	0.762686	0.639913	1	1	1	1	1	1	1	1	1	1	1	1	1	1	1	1	1	1	1	1	0.998453	1	0.988059	1	0.821778	0.951593	1	1	1	1	1	1	1	1	1	1	0.834586	0.697775	0.555259	0.511249	0.5646	0.725353	0.933648	0.998462	1	1	1	1	1	1	1	1	1	0.980175	0.86195	0.728613	0.693272	0.779866	0.8889	0.998286	0.986316	1	1	0.976977	0.946817	0.891382	0.780329	0.739461	0.657952	0.628998	0.682904	0.659145	0.688803	0.691429	0.716391	0.695149	0.833475	0.913494	0.945942	1	1	1	0.997656	0.913159	0.784794	0.737995	0.867046	1	1	1	1	1	1	1	1	1	1	1	1	1	1	1	1	1	1	1	1	1	1	1	1	1	1	0.916277	0.909638	0.852187	0.789056	0.762538	0.852066	0.694924	1	1	1	1	1	1	1	1	1	1	1	1	1	1	1	1	1	1	0.996898	1	1	1	1	1	1	1	1	0.971293	1	1	1	1	1	1	0.968451	0.997223	0.904739	0.764826	0.650769	0.64401	0.699177	0.818683	0.990376	0.976721	0.979516	0.986731	1	1	1	1	1	1	1	1	0.902213	0.656825	0.550002	0.568192	0.697115	0.880465	1	0.995372	0.849633	0.781279	0.761915	0.812196	0.846636	0.903283	0.846135	0.802422	0.874582	0.879549	0.815434	0.780441	0.931606	0.943261	0.98363	1	1	1	1	1	1	1	0.90655	0.865879	1	1	1	1	1	0.970395	0.925005	0.920533	1	1	1	1	1	1	1	1	1	1	1	1	1	1	1	1	1	1	1	0.884476	0.85709	0.942474	0.901829	0.851011	0.846722	0.794131	1	1	1	1	1	1	1	1	1	1	1	1	1	1	1	1	0.999893	1	1	1	1	1	1	1	1	1	1	1	1	1	1	1	1	1	1	1	0.952163	0.92706	0.849841	0.863956	0.910699	0.971826	1	1	1	1	1	1	1	1	1	1	1	1	0.878799	0.623933	0.435598	0.392216	0.549158	0.777007	0.970377	0.928414	0.667415	0.565447	0.647272	0.715484	0.871067	1	1	1	1	1	1	1	1	1	1	1	1	1	1	1	1	1	0.918735	0.987248	1	1	1	1	1	0.993162	0.961293	0.917763	0.904422	0.920808	1	1	1	1	1	1	1	1	1	1	1	1	1	1	1	1	1	1	0.803253	0.990095	0.974269	0.840182	0.931022	1	1	1	1	1	1	1	1	1	1	1	1	1	1	1	0.999093	1	1	1	1	1	1	1	1	1	1	1	1	1	1	1	1	1	1	1	1	0.984595	1	1	1	1	1	1	1	1	1	1	1	1	1	1	1	1	1	1	0.885406	0.600858	0.387677	0.362611	0.613285	0.897037	1	0.946953	0.651968	0.615504	0.675621	0.760152	0.923881	1	1	1	1	1	1	1	1	1	1	1	1	1	1	1	1	1	1	1	1	1	1	1	1	1	1	1	0.986146	0.945628	0.950102	0.995965	1	1	1	1	1	1	1	0.989171	0.979334	1	1	1	1	1	1	1	0.980584	1	1	0.876547	1	1	1	1	1	1	1	1	1	1	1	1	1	1	1	0.998775	1	1	1	1	1	1	1	1	0.877119	1	1	0.986991	1	1	1	1	1	1	1	1	