# vtk DataFile Version 2.0
output1.vtk
ASCII 
DATASET STRUCTURED_GRID
DIMENSIONS 60 100 1
POINTS 6000 float
0 0 1
0 1 1
0 2 1
0 3 1
0 4 1
0 5 1
0 6 1
0 7 1
0 8 1
0 9 1
0 10 1
0 11 1
0 12 1
0 13 1
0 14 1
0 15 1
0 16 1
0 17 1
0 18 1
0 19 1
0 20 1
0 21 1
0 22 1
0 23 1
0 24 1
0 25 1
0 26 1
0 27 1
0 28 1
0 29 1
0 30 1
0 31 1
0 32 1
0 33 1
0 34 1
0 35 1
0 36 1
0 37 1
0 38 1
0 39 1
0 40 1
0 41 1
0 42 1
0 43 1
0 44 1
0 45 1
0 46 1
0 47 1
0 48 1
0 49 1
0 50 1
0 51 1
0 52 1
0 53 1
0 54 1
0 55 1
0 56 1
0 57 1
0 58 1
0 59 1
1 0 1
1 1 1
1 2 1
1 3 1
1 4 1
1 5 1
1 6 1
1 7 1
1 8 1
1 9 1
1 10 1
1 11 1
1 12 1
1 13 1
1 14 1
1 15 1
1 16 1
1 17 1
1 18 1
1 19 1
1 20 1
1 21 1
1 22 1
1 23 1
1 24 1
1 25 1
1 26 1
1 27 1
1 28 1
1 29 1
1 30 1
1 31 1
1 32 1
1 33 1
1 34 1
1 35 1
1 36 1
1 37 1
1 38 1
1 39 1
1 40 1
1 41 1
1 42 1
1 43 1
1 44 1
1 45 1
1 46 1
1 47 1
1 48 1
1 49 1
1 50 1
1 51 1
1 52 1
1 53 1
1 54 1
1 55 1
1 56 1
1 57 1
1 58 1
1 59 1
2 0 1
2 1 1
2 2 1
2 3 1
2 4 1
2 5 1
2 6 1
2 7 1
2 8 1
2 9 1
2 10 1
2 11 1
2 12 1
2 13 1
2 14 1
2 15 1
2 16 1
2 17 1
2 18 1
2 19 1
2 20 1
2 21 1
2 22 1
2 23 1
2 24 1
2 25 1
2 26 1
2 27 1
2 28 1
2 29 1
2 30 1
2 31 1
2 32 1
2 33 1
2 34 1
2 35 1
2 36 1
2 37 1
2 38 1
2 39 1
2 40 1
2 41 1
2 42 1
2 43 1
2 44 1
2 45 1
2 46 1
2 47 1
2 48 1
2 49 1
2 50 1
2 51 1
2 52 1
2 53 1
2 54 1
2 55 1
2 56 1
2 57 1
2 58 1
2 59 1
3 0 1
3 1 1
3 2 1
3 3 1
3 4 1
3 5 1
3 6 1
3 7 1
3 8 1
3 9 1
3 10 1
3 11 1
3 12 1
3 13 1
3 14 1
3 15 1
3 16 1
3 17 1
3 18 1
3 19 1
3 20 1
3 21 1
3 22 1
3 23 1
3 24 1
3 25 1
3 26 1
3 27 1
3 28 1
3 29 1
3 30 1
3 31 1
3 32 1
3 33 1
3 34 1
3 35 1
3 36 1
3 37 1
3 38 1
3 39 1
3 40 1
3 41 1
3 42 1
3 43 1
3 44 1
3 45 1
3 46 1
3 47 1
3 48 1
3 49 1
3 50 1
3 51 1
3 52 1
3 53 1
3 54 1
3 55 1
3 56 1
3 57 1
3 58 1
3 59 1
4 0 1
4 1 1
4 2 1
4 3 1
4 4 1
4 5 1
4 6 1
4 7 1
4 8 1
4 9 1
4 10 1
4 11 1
4 12 1
4 13 1
4 14 1
4 15 1
4 16 1
4 17 1
4 18 1
4 19 1
4 20 1
4 21 1
4 22 1
4 23 1
4 24 1
4 25 1
4 26 1
4 27 1
4 28 1
4 29 1
4 30 1
4 31 1
4 32 1
4 33 1
4 34 1
4 35 1
4 36 1
4 37 1
4 38 1
4 39 1
4 40 1
4 41 1
4 42 1
4 43 1
4 44 1
4 45 1
4 46 1
4 47 1
4 48 1
4 49 1
4 50 1
4 51 1
4 52 1
4 53 1
4 54 1
4 55 1
4 56 1
4 57 1
4 58 1
4 59 1
5 0 1
5 1 1
5 2 1
5 3 1
5 4 1
5 5 1
5 6 1
5 7 1
5 8 1
5 9 1
5 10 1
5 11 1
5 12 1
5 13 1
5 14 1
5 15 1
5 16 1
5 17 1
5 18 1
5 19 1
5 20 1
5 21 1
5 22 1
5 23 1
5 24 1
5 25 1
5 26 1
5 27 1
5 28 1
5 29 1
5 30 1
5 31 1
5 32 1
5 33 1
5 34 1
5 35 1
5 36 1
5 37 1
5 38 1
5 39 1
5 40 1
5 41 1
5 42 1
5 43 1
5 44 1
5 45 1
5 46 1
5 47 1
5 48 1
5 49 1
5 50 1
5 51 1
5 52 1
5 53 1
5 54 1
5 55 1
5 56 1
5 57 1
5 58 1
5 59 1
6 0 1
6 1 1
6 2 1
6 3 1
6 4 1
6 5 1
6 6 1
6 7 1
6 8 1
6 9 1
6 10 1
6 11 1
6 12 1
6 13 1
6 14 1
6 15 1
6 16 1
6 17 1
6 18 1
6 19 1
6 20 1
6 21 1
6 22 1
6 23 1
6 24 1
6 25 1
6 26 1
6 27 1
6 28 1
6 29 1
6 30 1
6 31 1
6 32 1
6 33 1
6 34 1
6 35 1
6 36 1
6 37 1
6 38 1
6 39 1
6 40 1
6 41 1
6 42 1
6 43 1
6 44 1
6 45 1
6 46 1
6 47 1
6 48 1
6 49 1
6 50 1
6 51 1
6 52 1
6 53 1
6 54 1
6 55 1
6 56 1
6 57 1
6 58 1
6 59 1
7 0 1
7 1 1
7 2 1
7 3 1
7 4 1
7 5 1
7 6 1
7 7 1
7 8 1
7 9 1
7 10 1
7 11 1
7 12 1
7 13 1
7 14 1
7 15 1
7 16 1
7 17 1
7 18 1
7 19 1
7 20 1
7 21 1
7 22 1
7 23 1
7 24 1
7 25 1
7 26 1
7 27 1
7 28 1
7 29 1
7 30 1
7 31 1
7 32 1
7 33 1
7 34 1
7 35 1
7 36 1
7 37 1
7 38 1
7 39 1
7 40 1
7 41 1
7 42 1
7 43 1
7 44 1
7 45 1
7 46 1
7 47 1
7 48 1
7 49 1
7 50 1
7 51 1
7 52 1
7 53 1
7 54 1
7 55 1
7 56 1
7 57 1
7 58 1
7 59 1
8 0 1
8 1 1
8 2 1
8 3 1
8 4 1
8 5 1
8 6 1
8 7 1
8 8 1
8 9 1
8 10 1
8 11 1
8 12 1
8 13 1
8 14 1
8 15 1
8 16 1
8 17 1
8 18 1
8 19 1
8 20 1
8 21 1
8 22 1
8 23 1
8 24 1
8 25 1
8 26 1
8 27 1
8 28 1
8 29 1
8 30 1
8 31 1
8 32 1
8 33 1
8 34 1
8 35 1
8 36 1
8 37 1
8 38 1
8 39 1
8 40 1
8 41 1
8 42 1
8 43 1
8 44 1
8 45 1
8 46 1
8 47 1
8 48 1
8 49 1
8 50 1
8 51 1
8 52 1
8 53 1
8 54 1
8 55 1
8 56 1
8 57 1
8 58 1
8 59 1
9 0 1
9 1 1
9 2 1
9 3 1
9 4 1
9 5 1
9 6 1
9 7 1
9 8 1
9 9 1
9 10 1
9 11 1
9 12 1
9 13 1
9 14 1
9 15 1
9 16 1
9 17 1
9 18 1
9 19 1
9 20 1
9 21 1
9 22 1
9 23 1
9 24 1
9 25 1
9 26 1
9 27 1
9 28 1
9 29 1
9 30 1
9 31 1
9 32 1
9 33 1
9 34 1
9 35 1
9 36 1
9 37 1
9 38 1
9 39 1
9 40 1
9 41 1
9 42 1
9 43 1
9 44 1
9 45 1
9 46 1
9 47 1
9 48 1
9 49 1
9 50 1
9 51 1
9 52 1
9 53 1
9 54 1
9 55 1
9 56 1
9 57 1
9 58 1
9 59 1
10 0 1
10 1 1
10 2 1
10 3 1
10 4 1
10 5 1
10 6 1
10 7 1
10 8 1
10 9 1
10 10 1
10 11 1
10 12 1
10 13 1
10 14 1
10 15 1
10 16 1
10 17 1
10 18 1
10 19 1
10 20 1
10 21 1
10 22 1
10 23 1
10 24 1
10 25 1
10 26 1
10 27 1
10 28 1
10 29 1
10 30 1
10 31 1
10 32 1
10 33 1
10 34 1
10 35 1
10 36 1
10 37 1
10 38 1
10 39 1
10 40 1
10 41 1
10 42 1
10 43 1
10 44 1
10 45 1
10 46 1
10 47 1
10 48 1
10 49 1
10 50 1
10 51 1
10 52 1
10 53 1
10 54 1
10 55 1
10 56 1
10 57 1
10 58 1
10 59 1
11 0 1
11 1 1
11 2 1
11 3 1
11 4 1
11 5 1
11 6 1
11 7 1
11 8 1
11 9 1
11 10 1
11 11 1
11 12 1
11 13 1
11 14 1
11 15 1
11 16 1
11 17 1
11 18 1
11 19 1
11 20 1
11 21 1
11 22 1
11 23 1
11 24 1
11 25 1
11 26 1
11 27 1
11 28 1
11 29 1
11 30 1
11 31 1
11 32 1
11 33 1
11 34 1
11 35 1
11 36 1
11 37 1
11 38 1
11 39 1
11 40 1
11 41 1
11 42 1
11 43 1
11 44 1
11 45 1
11 46 1
11 47 1
11 48 1
11 49 1
11 50 1
11 51 1
11 52 1
11 53 1
11 54 1
11 55 1
11 56 1
11 57 1
11 58 1
11 59 1
12 0 1
12 1 1
12 2 1
12 3 1
12 4 1
12 5 1
12 6 1
12 7 1
12 8 1
12 9 1
12 10 1
12 11 1
12 12 1
12 13 1
12 14 1
12 15 1
12 16 1
12 17 1
12 18 1
12 19 1
12 20 1
12 21 1
12 22 1
12 23 1
12 24 1
12 25 1
12 26 1
12 27 1
12 28 1
12 29 1
12 30 1
12 31 1
12 32 1
12 33 1
12 34 1
12 35 1
12 36 1
12 37 1
12 38 1
12 39 1
12 40 1
12 41 1
12 42 1
12 43 1
12 44 1
12 45 1
12 46 1
12 47 1
12 48 1
12 49 1
12 50 1
12 51 1
12 52 1
12 53 1
12 54 1
12 55 1
12 56 1
12 57 1
12 58 1
12 59 1
13 0 1
13 1 1
13 2 1
13 3 1
13 4 1
13 5 1
13 6 1
13 7 1
13 8 1
13 9 1
13 10 1
13 11 1
13 12 1
13 13 1
13 14 1
13 15 1
13 16 1
13 17 1
13 18 1
13 19 1
13 20 1
13 21 1
13 22 1
13 23 1
13 24 1
13 25 1
13 26 1
13 27 1
13 28 1
13 29 1
13 30 1
13 31 1
13 32 1
13 33 1
13 34 1
13 35 1
13 36 1
13 37 1
13 38 1
13 39 1
13 40 1
13 41 1
13 42 1
13 43 1
13 44 1
13 45 1
13 46 1
13 47 1
13 48 1
13 49 1
13 50 1
13 51 1
13 52 1
13 53 1
13 54 1
13 55 1
13 56 1
13 57 1
13 58 1
13 59 1
14 0 1
14 1 1
14 2 1
14 3 1
14 4 1
14 5 1
14 6 1
14 7 1
14 8 1
14 9 1
14 10 1
14 11 1
14 12 1
14 13 1
14 14 1
14 15 1
14 16 1
14 17 1
14 18 1
14 19 1
14 20 1
14 21 1
14 22 1
14 23 1
14 24 1
14 25 1
14 26 1
14 27 1
14 28 1
14 29 1
14 30 1
14 31 1
14 32 1
14 33 1
14 34 1
14 35 1
14 36 1
14 37 1
14 38 1
14 39 1
14 40 1
14 41 1
14 42 1
14 43 1
14 44 1
14 45 1
14 46 1
14 47 1
14 48 1
14 49 1
14 50 1
14 51 1
14 52 1
14 53 1
14 54 1
14 55 1
14 56 1
14 57 1
14 58 1
14 59 1
15 0 1
15 1 1
15 2 1
15 3 1
15 4 1
15 5 1
15 6 1
15 7 1
15 8 1
15 9 1
15 10 1
15 11 1
15 12 1
15 13 1
15 14 1
15 15 1
15 16 1
15 17 1
15 18 1
15 19 1
15 20 1
15 21 1
15 22 1
15 23 1
15 24 1
15 25 1
15 26 1
15 27 1
15 28 1
15 29 1
15 30 1
15 31 1
15 32 1
15 33 1
15 34 1
15 35 1
15 36 1
15 37 1
15 38 1
15 39 1
15 40 1
15 41 1
15 42 1
15 43 1
15 44 1
15 45 1
15 46 1
15 47 1
15 48 1
15 49 1
15 50 1
15 51 1
15 52 1
15 53 1
15 54 1
15 55 1
15 56 1
15 57 1
15 58 1
15 59 1
16 0 1
16 1 1
16 2 1
16 3 1
16 4 1
16 5 1
16 6 1
16 7 1
16 8 1
16 9 1
16 10 1
16 11 1
16 12 1
16 13 1
16 14 1
16 15 1
16 16 1
16 17 1
16 18 1
16 19 1
16 20 1
16 21 1
16 22 1
16 23 1
16 24 1
16 25 1
16 26 1
16 27 1
16 28 1
16 29 1
16 30 1
16 31 1
16 32 1
16 33 1
16 34 1
16 35 1
16 36 1
16 37 1
16 38 1
16 39 1
16 40 1
16 41 1
16 42 1
16 43 1
16 44 1
16 45 1
16 46 1
16 47 1
16 48 1
16 49 1
16 50 1
16 51 1
16 52 1
16 53 1
16 54 1
16 55 1
16 56 1
16 57 1
16 58 1
16 59 1
17 0 1
17 1 1
17 2 1
17 3 1
17 4 1
17 5 1
17 6 1
17 7 1
17 8 1
17 9 1
17 10 1
17 11 1
17 12 1
17 13 1
17 14 1
17 15 1
17 16 1
17 17 1
17 18 1
17 19 1
17 20 1
17 21 1
17 22 1
17 23 1
17 24 1
17 25 1
17 26 1
17 27 1
17 28 1
17 29 1
17 30 1
17 31 1
17 32 1
17 33 1
17 34 1
17 35 1
17 36 1
17 37 1
17 38 1
17 39 1
17 40 1
17 41 1
17 42 1
17 43 1
17 44 1
17 45 1
17 46 1
17 47 1
17 48 1
17 49 1
17 50 1
17 51 1
17 52 1
17 53 1
17 54 1
17 55 1
17 56 1
17 57 1
17 58 1
17 59 1
18 0 1
18 1 1
18 2 1
18 3 1
18 4 1
18 5 1
18 6 1
18 7 1
18 8 1
18 9 1
18 10 1
18 11 1
18 12 1
18 13 1
18 14 1
18 15 1
18 16 1
18 17 1
18 18 1
18 19 1
18 20 1
18 21 1
18 22 1
18 23 1
18 24 1
18 25 1
18 26 1
18 27 1
18 28 1
18 29 1
18 30 1
18 31 1
18 32 1
18 33 1
18 34 1
18 35 1
18 36 1
18 37 1
18 38 1
18 39 1
18 40 1
18 41 1
18 42 1
18 43 1
18 44 1
18 45 1
18 46 1
18 47 1
18 48 1
18 49 1
18 50 1
18 51 1
18 52 1
18 53 1
18 54 1
18 55 1
18 56 1
18 57 1
18 58 1
18 59 1
19 0 1
19 1 1
19 2 1
19 3 1
19 4 1
19 5 1
19 6 1
19 7 1
19 8 1
19 9 1
19 10 1
19 11 1
19 12 1
19 13 1
19 14 1
19 15 1
19 16 1
19 17 1
19 18 1
19 19 1
19 20 1
19 21 1
19 22 1
19 23 1
19 24 1
19 25 1
19 26 1
19 27 1
19 28 1
19 29 1
19 30 1
19 31 1
19 32 1
19 33 1
19 34 1
19 35 1
19 36 1
19 37 1
19 38 1
19 39 1
19 40 1
19 41 1
19 42 1
19 43 1
19 44 1
19 45 1
19 46 1
19 47 1
19 48 1
19 49 1
19 50 1
19 51 1
19 52 1
19 53 1
19 54 1
19 55 1
19 56 1
19 57 1
19 58 1
19 59 1
20 0 1
20 1 1
20 2 1
20 3 1
20 4 1
20 5 1
20 6 1
20 7 1
20 8 1
20 9 1
20 10 1
20 11 1
20 12 1
20 13 1
20 14 1
20 15 1
20 16 1
20 17 1
20 18 1
20 19 1
20 20 1
20 21 1
20 22 1
20 23 1
20 24 1
20 25 1
20 26 1
20 27 1
20 28 1
20 29 1
20 30 1
20 31 1
20 32 1
20 33 1
20 34 1
20 35 1
20 36 1
20 37 1
20 38 1
20 39 1
20 40 1
20 41 1
20 42 1
20 43 1
20 44 1
20 45 1
20 46 1
20 47 1
20 48 1
20 49 1
20 50 1
20 51 1
20 52 1
20 53 1
20 54 1
20 55 1
20 56 1
20 57 1
20 58 1
20 59 1
21 0 1
21 1 1
21 2 1
21 3 1
21 4 1
21 5 1
21 6 1
21 7 1
21 8 1
21 9 1
21 10 1
21 11 1
21 12 1
21 13 1
21 14 1
21 15 1
21 16 1
21 17 1
21 18 1
21 19 1
21 20 1
21 21 1
21 22 1
21 23 1
21 24 1
21 25 1
21 26 1
21 27 1
21 28 1
21 29 1
21 30 1
21 31 1
21 32 1
21 33 1
21 34 1
21 35 1
21 36 1
21 37 1
21 38 1
21 39 1
21 40 1
21 41 1
21 42 1
21 43 1
21 44 1
21 45 1
21 46 1
21 47 1
21 48 1
21 49 1
21 50 1
21 51 1
21 52 1
21 53 1
21 54 1
21 55 1
21 56 1
21 57 1
21 58 1
21 59 1
22 0 1
22 1 1
22 2 1
22 3 1
22 4 1
22 5 1
22 6 1
22 7 1
22 8 1
22 9 1
22 10 1
22 11 1
22 12 1
22 13 1
22 14 1
22 15 1
22 16 1
22 17 1
22 18 1
22 19 1
[...]
POINT_DATA 6000
SCALARS CON float 1
LOOKUP_TABLE default
1	1	1	1	1	1	1	1	1	1	0.998365	0.766272	0.517011	0.477908	0.695595	0.957421	1	1	1	1	1	1	1	1	1	1	1	1	1	0.978804	0.842475	0.662687	0.530331	0.504888	0.588086	0.745795	0.92081	0.994476	0.960652	0.816709	0.65919	0.682873	0.830424	0.979262	1	1	1	1	1	1	1	0.972569	0.799175	0.597145	0.500437	0.57157	0.75994	0.940935	1	1	1	1	1	1	1	1	1	1	1	1	0.986878	0.76733	0.548625	0.529862	0.74921	0.976939	1	1	1	1	1	1	1	1	1	1	1	1	1	1	0.946733	0.797102	0.628505	0.518849	0.508151	0.596209	0.723789	0.821403	0.804056	0.676266	0.627455	0.714438	0.850331	0.97745	1	1	1	1	1	1	1	0.99435	0.83028	0.630776	0.505777	0.629683	0.837144	0.989428	1	1	1	1	1	1	1	1	1	1	1	1	0.985275	0.761481	0.542062	0.533758	0.761434	0.933147	1	1	1	1	1	1	1	1	1	1	1	1	1	1	1	0.92408	0.770966	0.617754	0.522379	0.51474	0.556727	0.612342	0.638792	0.538928	0.527093	0.653804	0.765755	0.872865	0.967374	0.912982	0.924401	0.938122	0.952777	1	0.96438	0.874615	0.736433	0.629272	0.650251	0.797632	0.932591	1	1	1	1	1	1	1	1	1	1	1	1	1	0.980595	0.784389	0.549877	0.549875	0.758878	0.984005	1	1	1	1	1	1	1	1	1	1	1	1	1	1	1	1	0.916229	0.777185	0.63451	0.514718	0.455388	0.460234	0.431731	0.439348	0.503926	0.548182	0.621777	0.746468	0.775268	0.701203	0.712698	0.72915	0.749017	0.867469	0.81223	0.669318	0.581945	0.551443	0.651726	0.860166	1	1	1	1	1	1	1	1	1	1	1	1	1	1	1	0.845405	0.617956	0.638776	0.758349	1	1	1	1	1	1	1	1	1	1	1	1	1	1	1	1	1	1	0.939242	0.813913	0.610767	0.438976	0.384227	0.404435	0.384918	0.432131	0.472012	0.575358	0.625657	0.525146	0.526817	0.531485	0.539754	0.551676	0.70281	0.650176	0.511716	0.421454	0.451164	0.608587	0.85108	1	1	1	1	1	1	1	1	1	1	1	1	1	1	1	0.803556	0.590349	0.597563	0.827777	1	1	1	1	1	1	1	1	1	1	1	1	1	1	1	1	1	1	1	0.896467	0.729628	0.508616	0.354256	0.366352	0.408056	0.469755	0.557734	0.621219	0.610227	0.523994	0.523498	0.51981	0.513889	0.507536	0.659242	0.610317	0.484552	0.348791	0.393096	0.554105	0.801887	1	1	1	1	1	1	1	1	1	1	1	1	1	1	0.967049	0.690687	0.488064	0.538648	0.773268	1	1	1	1	1	1	1	1	1	1	1	1	1	1	1	1	1	1	1	0.903934	0.713626	0.500387	0.358249	0.416617	0.537054	0.654876	0.726272	0.751717	0.682396	0.692532	0.693205	0.68489	0.668826	0.646549	0.783265	0.734135	0.613409	0.469286	0.407414	0.520487	0.721384	0.931718	0.995657	1	1	1	1	1	1	1	1	1	1	1	0.998653	0.810411	0.563317	0.392511	0.457277	0.678633	0.932334	1	1	1	1	1	1	1	1	1	1	1	1	1	1	1	1	1	1	0.839532	0.655081	0.522372	0.474649	0.653822	0.817717	0.897135	0.92826	0.89011	0.894979	0.905218	0.906569	0.900053	0.886217	0.864832	0.970935	0.945281	0.839166	0.690531	0.540914	0.530713	0.629476	0.788088	0.983231	0.984795	1	0.988105	1	1	1	1	1	0.987259	0.923543	0.904186	0.831788	0.667639	0.480457	0.347923	0.413574	0.596359	0.816494	0.974332	1	1	1	1	1	1	1	1	1	1	1	1	1	1	1	0.998077	0.921777	0.757513	0.610372	0.528162	0.675469	0.867365	1	1	1	1	1	1	1	1	1	1	1	1	1	0.916562	0.741429	0.550394	0.556098	0.649096	0.817526	1	0.988138	1	1	1	1	0.959253	0.914992	0.844123	0.746479	0.638609	0.672359	0.59835	0.50064	0.414298	0.460645	0.564522	0.694128	0.794936	0.832529	0.945476	1	1	1	1	1	1	1	1	1	1	1	1	0.997942	0.927463	0.745632	0.587346	0.516232	0.658951	0.85613	1	1	1	1	1	1	1	1	1	1	1	1	1	1	1	0.925343	0.718567	0.549338	0.564302	0.657894	0.828563	1	0.805188	0.910279	0.965684	0.967377	0.902513	0.719518	0.643961	0.56892	0.514613	0.578502	0.645915	0.642144	0.595571	0.614347	0.622658	0.618965	0.550577	0.660257	0.789099	0.900037	0.971797	1	1	1	1	1	1	1	1	1	1	0.954665	0.768611	0.605531	0.519352	0.632518	0.818712	1	1	1	1	1	1	1	1	1	1	1	1	1	1	1	1	1	0.898876	0.69971	0.56176	0.570023	0.655538	0.798042	0.605145	0.653112	0.702895	0.737514	0.722933	0.577726	0.511463	0.50026	0.523944	0.589007	0.783617	0.850193	0.827742	0.826299	0.75166	0.586526	0.500329	0.527847	0.608696	0.712539	0.812015	0.890177	0.943342	0.978657	0.998563	1	1	1	1	1	0.96464	0.797727	0.626951	0.525402	0.600976	0.788274	0.97689	1	1	1	1	1	1	1	1	1	1	1	1	1	1	1	1	1	1	0.88645	0.685563	0.566183	0.565087	0.601846	0.476644	0.45546	0.495044	0.557522	0.611279	0.594642	0.533999	0.587971	0.669617	0.771094	0.874419	1	1	0.997895	0.855473	0.685123	0.571443	0.509128	0.50476	0.546247	0.613091	0.685654	0.750555	0.802165	0.838476	0.859141	0.929487	0.998333	0.976441	0.89152	0.76624	0.635263	0.533763	0.577159	0.748968	0.942011	1	1	1	1	1	1	1	1	1	1	1	1	1	1	1	1	1	1	1	1	0.891708	0.701278	0.544036	0.47586	0.442961	0.365143	0.402572	0.509894	0.641023	0.733933	0.697892	0.781538	0.868733	0.94574	1	1	1	1	0.961859	0.864458	0.738009	0.623248	0.543058	0.504834	0.502848	0.525072	0.558255	0.591939	0.619886	0.63877	0.711296	0.801064	0.747812	0.647181	0.542714	0.491528	0.554088	0.723686	0.915175	1	1	1	1	1	1	1	1	1	1	1	1	1	1	1	1	1	1	1	1	1	1	0.890354	0.666731	0.443099	0.576357	0.419195	0.405047	0.542599	0.742181	0.908708	0.962605	0.958652	1	1	1	1	1	1	1	0.994016	0.916136	0.813717	0.708397	0.620443	0.557839	0.520848	0.504085	0.500003	0.501816	0.505156	0.622115	0.645446	0.570312	0.457763	0.381706	0.436551	0.638972	0.87089	1	1	1	1	1	1	1	1	1	1	1	1	1	1	1	1	1	1	1	1	1	1	1	1	0.812029	0.576396	0.605627	0.461081	0.469108	0.613539	0.806684	0.936331	1	1	1	1	1	1	1	1	1	1	1	0.971383	0.903211	0.824958	0.745953	0.679345	0.62939	0.594987	0.572443	0.558696	0.675127	0.650707	0.536147	0.39851	0.356248	0.493047	0.735315	0.976582	1	1	1	1	1	1	1	1	1	1	1	1	1	1	1	1	1	1	1	1	1	1	1	1	0.818347	0.60563	0.634978	0.462301	0.427468	0.538196	0.715553	0.873857	0.992185	0.987408	1	1	1	1	1	1	1	1	1	1	1	0.987523	0.94083	0.89043	0.846645	0.81138	0.782527	0.760498	0.84828	0.787989	0.632906	0.484362	0.466562	0.5876	0.819402	1	1	1	1	1	1	1	1	1	1	1	1	1	1	1	1	1	1	1	1	1	1	1	1	1	0.856648	0.634977	0.655458	0.428331	0.358449	0.46027	0.630069	0.783498	0.863166	0.843094	0.930334	0.999588	1	1	1	1	1	1	1	1	1	1	1	1	1	0.994395	0.977914	0.960514	1	0.938769	0.793311	0.657643	0.58591	0.660754	0.865306	1	1	1	1	1	1	1	1	1	1	1	1	1	1	1	1	1	1	1	1	1	1	1	1	1	0.919001	0.655458	0.586014	0.409905	0.392034	0.468011	0.595685	0.692921	0.694448	0.647691	0.75323	0.871371	0.965831	1	1	1	1	1	1	1	1	1	1	1	1	1	1	1	1	1	0.938002	0.771237	0.64309	0.670589	0.826514	0.958828	1	1	1	1	1	1	1	1	1	1	1	1	1	1	1	1	1	1	1	1	1	1	1	1	0.843942	0.586016	0.544416	0.502383	0.525486	0.610259	0.690184	0.714174	0.584407	0.516239	0.579477	0.691369	0.829758	0.950083	1	1	1	1	1	1	1	1	1	1	1	1	1	1	1	1	0.958684	0.751183	0.524772	0.524599	0.694008	0.906599	1	1	1	1	1	1	1	1	1	1	1	1	1	1	1	1	1	1	1	1	1	1	1	0.944852	0.72048	0.544405	0.571867	0.636359	0.740863	0.840165	0.892251	0.860285	0.669627	0.52004	0.500871	0.547944	0.665432	0.822746	0.957636	1	1	1	1	1	1	1	1	1	1	1	1	1	1	1	0.931719	0.724284	0.538349	0.514093	0.66756	0.883831	1	1	1	1	1	1	1	1	1	1	1	1	1	1	1	1	1	1	1	1	1	1	1	0.799555	0.579288	0.571867	0.628466	0.788112	0.948654	1	1	1	0.832814	0.648073	0.547092	0.500087	0.543349	0.677425	0.853502	0.986916	1	1	1	1	1	1	1	1	1	1	1	1	1	1	0.959287	0.760381	0.559616	0.504428	0.632403	0.848978	0.999935	1	1	1	1	1	1	1	1	1	1	1	1	1	1	1	1	1	1	1	1	1	0.88149	0.637463	0.571153	0.628466	0.724622	0.926131	0.994612	1	1	1	0.929289	0.82372	0.681875	0.552619	0.500007	0.564498	0.728826	0.911226	1	1	1	1	1	1	1	1	1	1	1	1	1	1	0.986204	0.804347	0.592006	0.5	0.590495	0.796443	0.972401	1	1	1	1	1	1	1	1	1	1	1	1	1	1	1	1	1	1	1	1	0.972986	0.743613	0.572817	0.588362	0.724622	0.839986	0.962675	1	1	1	1	1	0.958302	0.835337	0.666619	0.531081	0.507935	0.623091	0.819194	0.979031	1	1	1	1	1	1	1	1	1	1	1	1	1	1	0.853157	0.638631	0.506988	0.547505	0.728485	0.923907	1	1	1	1	1	1	1	1	1	1	1	1	1	1	1	1	1	1	1	1	0.853772	0.607087	0.557355	0.649789	0.839987	0.939352	0.972892	1	1	1	1	1	1	0.948303	0.79046	0.605889	0.503142	0.552168	0.730884	0.926193	1	1	1	1	1	1	1	1	1	1	1	1	1	1	0.906532	0.702088	0.533249	0.513044	0.650547	0.852337	0.991327	1	1	1	1	1	1	1	1	1	1	1	1	1	1	1	1	1	1	0.977056	0.731698	0.564635	0.584027	0.739742	0.939373	0.934469	1	1	1	1	1	1	1	1	0.88766	0.68948	0.529591	0.515549	0.662558	0.874074	1	1	1	1	1	1	1	1	1	1	1	1	1	1	0.960764	0.781335	0.585795	0.500098	0.573195	0.753822	0.930112	1	1	1	1	1	1	1	1	1	1	1	1	1	1	1	1	1	1	0.87126	0.617399	0.552712	0.646551	0.845135	0.934541	0.983961	1	1	1	1	1	1	1	1	0.945756	0.757151	0.564471	0.502273	0.617886	0.834598	1	1	1	1	1	1	1	1	1	1	1	1	1	1	1	0.867342	0.667423	0.522685	0.515926	0.643257	0.826434	0.965717	1	1	1	1	1	1	1	1	1	1	1	1	1	1	1	1	1	0.757346	0.544049	0.571867	0.732819	0.924781	0.983961	1	1	1	1	1	1	1	1	1	0.975894	0.798599	0.590705	0.499936	0.59417	0.810897	0.997262	1	1	1	1	1	1	1	1	1	1	1	1	1	1	0.945388	0.772251	0.590133	0.501648	0.547369	0.69372	0.861812	0.976171	1	1	1	1	1	1	1	1	1	1	1	1	1	1	1	0.914465	0.647264	0.546952	0.628971	0.830569	0.942737	1	1	1	1	1	1	1	1	1	1	0.983653	0.810266	0.598785	0.500063	0.587742	0.803884	0.994682	1	1	1	1	1	1	1	1	1	1	1	1	1	1	1	0.883498	0.700073	0.548348	0.50078	0.569547	0.712148	0.862784	0.966916	1	1	1	1	1	1	1	1	1	1	1	1	1	1	0.808449	0.557583	0.563615	0.704711	0.921004	0.97686	1	1	1	1	1	1	1	1	1	1	0.970501	0.791249	0.586051	0.500016	0.597673	0.814573	0.998739	1	1	1	1	1	1	1	1	1	1	1	1	1	1	1	0.97128	0.831246	0.656891	0.531352	0.502712	0.57022	0.695747	0.829643	0.933585	0.99404	1	1	1	1	1	1	1	1	1	1	1	0.956692	0.702928	0.543277	0.60412	0.785813	0.983263	1	1	1	1	1	1	1	1	1	1	1	0.932989	0.742226	0.556421	0.503907	0.625686	0.8416	1	1	1	1	1	1	1	1	1	1	1	1	1	1	1	1	1	0.94476	0.801904	0.642426	0.530926	0.500933	0.549133	0.647161	0.759674	0.859334	0.930776	0.978227	1	1	1	1	1	1	1	1	1	0.822266	0.594773	0.551061	0.659465	0.863725	0.995305	1	1	1	1	1	1	1	1	1	1	0.991957	0.863305	0.667728	0.521316	0.521621	0.675899	0.884663	1	1	1	1	1	1	1	1	1	1	1	1	1	1	1	1	1	1	0.934825	0.801065	0.655393	0.546752	0.501239	0.517783	0.577965	0.65821	0.738348	0.807308	0.85865	0.890626	0.908841	0.915627	0.91191	0.960176	1	0.976963	0.836638	0.637964	0.461252	0.497891	0.662085	0.895178	1	1	1	1	1	1	1	1	1	1	1	0.917307	0.75314	0.581922	0.500391	0.566355	0.750335	0.939676	1	1	1	1	1	1	1	1	1	1	1	1	1	1	1	1	1	1	1	0.94362	0.828835	0.696619	0.586666	0.520269	0.5	0.516026	0.553666	0.599108	0.641743	0.674981	0.696259	0.704737	0.700132	0.682473	0.787512	0.776158	0.645289	0.47432	0.367019	0.436869	0.618535	0.857881	1	1	1	0.990485	1	1	1	1	1	0.984867	0.911108	0.778809	0.62368	0.514957	0.518212	0.647995	0.843127	0.99215	1	1	1	1	1	1	1	1	1	1	1	1	1	1	1	1	1	1	1	1	0.969325	0.880022	0.766884	0.661102	0.57983	0.528594	0.504687	0.500215	0.506543	0.516298	0.524665	0.528379	0.526498	0.519774	0.558374	0.647597	0.569965	0.435755	0.376026	0.433284	0.576257	0.772599	0.948311	1	0.990485	0.851923	0.913144	0.946018	0.956269	0.945184	0.90998	0.842928	0.739269	0.618185	0.522901	0.505381	0.593862	0.763327	0.932868	1	1	1	1	1	1	1	1	1	1	1	1	1	1	1	1	1	1	1	1	1	1	1	0.941535	0.861128	0.772526	0.692344	0.629262	0.583958	0.5539	0.535677	0.526131	0.522606	0.52406	0.530737	0.543878	0.694636	0.66742	0.564912	0.522009	0.530735	0.584078	0.679984	0.763174	0.755998	0.851923	0.649875	0.711968	0.75231	0.766099	0.751677	0.709503	0.643944	0.56871	0.511241	0.506518	0.580147	0.725527	0.891603	1	1	1	1	1	1	1	1	1	1	1	1	1	1	1	1	1	1	1	1	1	1	1	1	1	1	0.954953	0.898334	0.843825	0.794059	0.752031	0.720838	0.701405	0.693456	0.696439	0.709893	0.732598	0.84081	0.872918	0.800058	0.761863	0.716243	0.667956	0.617111	0.518508	0.577801	0.649875	0.512496	0.537011	0.558234	0.566413	0.558084	0.536393	0.511274	0.500056	0.524747	0.601842	0.73018	0.879034	0.988638	1	1	1	1	1	1	1	1	1	1	1	1	1	1	1	1	1	1	1	1	1	1	1	1	1	1	1	1	1	0.980302	0.953964	0.931	0.915569	0.909002	0.911342	0.921841	0.939035	0.959134	0.993683	0.995593	0.978153	0.915234	0.787342	0.581123	0.518065	0.499943	0.512496	0.534923	0.512694	0.504351	0.502456	0.504292	0.512783	0.535911	0.584561	0.66613	0.777271	0.898635	0.991246	1	1	1	1	1	1	1	1	1	1	1	1	1	1	1	1	1	1	1	1	1	1	1	1	1	1	1	1	1	1	1	1	1	1	1	1	1	1	1	1	1	1	0.959714	0.869733	0.756558	0.654921	0.580272	0.534923	0.707282	0.659351	0.631685	0.622509	0.631224	0.658894	0.707929	0.778486	0.863244	0.943975	1	1	1	1	1	1	1	1	1	1	1	1	1	1	1	1	1	1	1	1	1	1	1	1	1	1	0.993211	0.989287	0.993211	1	1	1	1	1	1	1	1	1	1	1	1	1	1	1	1	0.999855	0.935079	0.856358	0.775274	0.707282	0.912349	0.87403	0.849574	0.841071	0.848998	0.873255	0.912086	0.959687	1	1	1	1	1	1	1	1	1	1	1	1	1	1	1	1	1	1	1	1	1	1	1	1	0.980485	0.926462	0.872451	0.830946	0.804766	0.795724	0.804766	0.830946	0.872451	0.926462	0.980485	1	1	1	1	1	1	1	1	1	1	1	1	1	1	1	0.95895	0.912349	1	1	1	1	1	1	1	1	1	1	1	1	1	1	1	1	1	1	1	1	1	1	1	1	1	1	1	1	1	1	0.994788	0.918126	0.823752	0.732369	0.661348	0.614675	0.589329	0.581475	0.589329	0.614675	0.661348	0.732369	0.823752	0.918126	0.994788	1	1	1	1	1	1	1	1	1	1	1	1	1	1	1	1	1	1	1	1	1	1	1	1	1	1	1	1	1	1	1	1	1	1	1	1	1	1	1	1	1	1	1	1	0.971037	0.869118	0.740254	0.629126	0.554066	0.515425	0.501848	0.499973	0.500491	0.499973	0.501848	0.515425	0.554066	0.629126	0.740254	0.869118	0.971037	1	1	1	1	1	1	1	1	1	1	1	1	1	1	1	1	1	1	1	1	1	1	1	1	1	1	1	1	1	1	1	1	1	1	1	1	1	1	1	1	1	1	0.971037	0.848986	0.697597	0.574948	0.51066	0.502345	0.528993	0.566132	0.595275	0.606065	0.595275	0.566132	0.528993	0.502345	0.51066	0.574948	0.697597	0.848986	0.971037	1	1	1	1	1	1	1	1	1	1	1	1	1	1	1	1	1	1	1	1	1	1	1	1	1	1	1	1	1	1	1	1	1	1	1	1	1	1	1	1	0.994788	0.869118	0.697597	0.559257	0.501197	0.524652	0.599033	0.686203	0.758422	0.804092	0.81953	0.804092	0.758422	0.686203	0.599033	0.524652	0.501197	0.559257	0.697597	0.869118	0.994788	1	1	1	1	1	1	1	1	1	1	1	1	1	1	1	1	1	1	1	1	1	1	1	1	1	1	1	1	1	1	1	1	1	1	1	1	1	1	1	0.918126	0.740254	0.574948	0.501197	0.537389	0.648478	0.777918	0.882639	0.945559	0.978835	0.989035	0.978835	0.945559	0.882639	0.777918	0.648478	0.537389	0.501197	0.574948	0.740254	0.918126	1	1	1	1	1	1	1	1	1	1	1	1	1	1	1	1	1	1	1	1	1	1	1	1	1	1	1	1	1	1	1	1	1	1	1	1	1	1	0.980485	0.823752	0.629126	0.51066	0.524652	0.648478	0.809669	0.936841	1	1	1	1	1	1	1	0.936841	0.809669	0.648478	0.524652	0.51066	0.629126	0.823752	0.980485	1	1	1	1	1	1	1	1	1	1	1	1	1	1	1	1	1	1	1	1	1	1	1	1	1	1	1	1	1	1	1	1	1	1	1	1	1	0.926462	0.732369	0.554066	0.502345	0.599033	0.777918	0.936841	1	1	1	1	1	1	1	1	1	0.936841	0.777918	0.599033	0.502345	0.554066	0.732369	0.926462	1	1	1	1	1	1	1	1	1	1	1	1	1	1	1	1	1	1	1	1	1	1	1	1	1	1	1	1	1	1	1	1	1	1	1	1	1	0.872451	0.661348	0.515425	0.528993	0.686203	0.882639	1	1	1	1	1	1	1	1	1	1	1	0.882639	0.686203	0.528993	0.515425	0.661348	0.872451	1	1	1	1	1	1	1	1	1	1	1	1	1	1	1	1	1	1	1	1	1	1	1	1	1	1	1	1	1	1	1	1	1	1	1	1	1	0.830946	0.614675	0.501848	0.566132	0.758422	0.945559	1	1	1	1	1	1	1	1	1	1	1	0.945559	0.758422	0.566132	0.501848	0.614675	0.830946	1	1	1	1	1	1	1	1	1	1	1	1	1	1	1	1	1	1	1	1	1	1	1	1	1	1	1	1	1	1	1	1	1	1	1	1	0.993211	0.804766	0.589329	0.499973	0.595275	0.804092	0.978835	1	1	1	1	1	1	1	1	1	1	1	0.978835	0.804092	0.595275	0.499973	0.589329	0.804766	0.993211	1	1	1	1	1	1	1	1	1	1	1	1	1	1	1	1	1	1	1	1	1	1	1	1	1	1	1	1	1	1	1	1	1	1	1	0.989287	0.795724	0.581475	0.500491	0.606065	0.81953	0.989035	1	1	1	1	1	1	1	1	1	1	1	0.989035	0.81953	0.606065	0.500491	0.581475	0.795724	0.989287	1	1	1	1	1	1	1	1	1	1	1	1	1	1	1	1	1	1	1	1	1	1	1	1	1	1	1	1	1	1	1	1	1	1	1	0.993211	0.804766	0.589329	0.499973	0.595275	0.804092	0.978835	1	1	1	1	1	1	1	1	1	1	1	0.978835	0.804092	0.595275	0.499973	0.589329	0.804766	0.993211	1	1	1	1	1	1	1	1	1	1	1	1	1	1	1	1	1	1	1	1	1	1	1	1	1	1	1	1	1	1	1	1	1	1	1	1	0.830946	0.614675	0.501848	0.566132	0.758422	0.945559	1	1	1	1	1	1	1	1	1	1	1	0.945559	0.758422	0.566132	0.501848	0.614675	0.830946	1	1	1	1	1	1	1	1	1	1	1	1	1	1	1	1	1	1	1	1	1	1	1	1	1	1	1	1	1	1	1	1	1	1	1	1	1	0.872451	0.661348	0.515425	0.528993	0.686203	0.882639	1	1	1	1	1	1	1	1	1	1	1	0.882639	0.686203	0.528993	0.515425	0.661348	0.872451	1	1	1	1	1	1	1	1	1	1	1	1	1	1	1	1	1	1	1	1	1	1	1	1	1	1	1	1	1	1	1	1	1	1	1	1	1	0.926462	0.732369	0.554066	0.502345	0.599033	0.777918	0.936841	1	1	1	1	1	1	1	1	1	0.936841	0.777918	0.599033	0.502345	0.554066	0.732369	0.926462	1	1	1	1	1	1	1	1	1	1	1	1	1	1	1	1	1	1	1	1	1	1	1	1	1	1	1	1	1	1	1	1	1	1	1	1	1	0.980485	0.823752	0.629126	0.51066	0.524652	0.648478	0.809669	0.936841	1	1	1	1	1	1	1	0.936841	0.809669	0.648478	0.524652	0.51066	0.629126	0.823752	0.980485	1	1	1	1	1	1	1	1	1	1	1	1	1	1	1	1	1	1	1	1	1	1	1	1	1	1	1	1	1	1	1	1	1	1	1	1	1	1	0.918126	0.740254	0.574948	0.501197	0.537389	0.648478	0.777918	0.882639	0.945559	0.978835	0.989035	0.978835	0.945559	0.882639	0.777918	0.648478	0.537389	0.501197	0.574948	0.740254	0.918126	1	1	1	1	1	1	1	1	1	1	1	1	1	1	1	1	1	1	1	1	1	1	1	1	1	1	1	1	1	1	1	1	1	1	1	1	1	1	1	0.994788	0.869118	0.697597	0.559257	0.501197	0.524652	0.599033	0.686203	0.758422	0.804092	0.81953	0.804092	0.758422	0.686203	0.599033	0.524652	0.501197	0.559257	0.697597	0.869118	0.994788	1	1	1	1	1	1	1	1	1	1	1	1	1	1	1	1	1	1	1	1	1	1	0.997936	0.982799	0.971223	0.967442	0.972397	0.984588	0.999588	1	1	1	1	1	1	1	1	1	1	1	0.971037	0.848986	0.697597	0.574948	0.51066	0.502345	0.528993	0.566132	0.595275	0.606065	0.595275	0.566132	0.528993	0.502345	0.51066	0.574948	0.697597	0.848986	0.971037	1	1	1	1	1	1	1	1	1	1	1	1	1	1	1	1	1	1	1	1	0.956849	0.904982	0.857245	0.818498	0.788362	0.769841	0.76411	0.771653	0.791952	0.823649	0.864164	0.913579	0.964899	1	1	1	1	1	1	1	1	1	0.971037	0.869118	0.740254	0.629126	0.554066	0.515425	0.501848	0.499973	0.500491	0.499973	0.501848	0.515425	0.554066	0.629126	0.740254	0.869118	0.971037	1	1	1	1	1	1	1	1	1	1	1	1	1	1	1	1	1	1	0.997287	0.933357	0.855122	0.772181	0.698566	0.641331	0.601378	0.575968	0.562293	0.558419	0.563602	0.578794	0.606396	0.649327	0.710248	0.787155	0.870847	0.94734	1	1	1	1	1	1	1	1	0.994788	0.918126	0.823752	0.732369	0.661348	0.614675	0.589329	0.581475	0.589329	0.614675	0.661348	0.732369	0.823752	0.918126	0.994788	1	1	1	1	1	1	1	1	1	1	1	1	1	1	1	1	1	1	0.95022	0.858953	0.749703	0.651594	0.577388	0.530539	0.507309	0.500207	0.501283	0.50448	0.505775	0.504084	0.500873	0.500583	0.509836	0.537062	0.589698	0.670839	0.774983	0.88543	0.972617	1	1	1	1	1	1	1	1	0.980485	0.926462	0.872451	0.830946	0.804766	0.795724	0.804766	0.830946	0.872451	0.926462	0.980485	1	1	1	1	1	1	1	1	1	1	1	1	1	1	1	1	1	1	1	0.914957	0.793016	0.668696	0.571032	0.515082	0.500044	0.515602	0.547837	0.584291	0.615584	0.635829	0.642095	0.633711	0.611441	0.578593	0.541654	0.510988	0.500266	0.524039	0.592056	0.702189	0.833336	0.946177	1	1	1	1	1	1	1	1	1	1	1	0.993211	0.989287	0.993211	1	1	1	1	1	1	1	1	1	1	1	1	1	1	1	1	1	1	1	1	1	0.996733	0.89569	0.751995	0.617702	0.528724	0.499982	0.52513	0.585618	0.660128	0.731316	0.790434	0.832868	0.856526	0.863192	0.854193	0.827459	0.781699	0.719151	0.645083	0.5704	0.514933	0.501925	0.549619	0.65896	0.804342	0.936579	1	1	1	1	1	1	1	1	1	1	1	1	1	1	1	1	1	1	1	1	1	1	1	1	1	1	1	1	1	1	1	1	1	0.996733	0.893789	0.73681	0.593585	0.511588	0.507618	0.569818	0.668894	0.774473	0.864841	0.927966	0.970581	0.995528	1	1	1	0.992639	0.96453	0.917649	0.847492	0.750339	0.64091	0.546058	0.500614	0.532543	0.644977	0.804386	0.946234	1	1	1	1	1	1	1	1	1	1	1	1	1	1	1	1	1	1	1	1	1	1	1	1	1	1	1	1	1	1	1	0.999887	0.893789	0.746644	0.591479	0.506996	0.517595	0.606823	0.734369	0.857459	0.947238	0.998569	1	1	1	1	1	1	1	1	1	0.989558	0.92798	0.824118	0.691468	0.567836	0.502309	0.532567	0.659049	0.833477	0.972728	1	1	1	1	1	1	1	1	1	1	1	1	1	1	1	1	1	1	1	1	1	1	1	1	1	1	1	1	1	1	0.909265	0.746644	0.610543	0.509922	0.518598	0.622074	0.769953	0.904496	0.985897	1	1	1	1	1	1	1	1	1	1	1	1	1	0.96444	0.859494	0.709232	0.567799	0.500606	0.549711	0.702388	0.885648	1	1	1	1	1	1	1	1	1	1	1	1	1	1	1	1	1	1	1	1	1	1	1	1	1	1	1	1	1	0.940465	0.781377	0.610543	0.523568	0.509863	0.6112	0.772604	0.920772	1	1	1	1	1	1	1	1	1	1	1	1	1	1	1	1	0.974641	0.859438	0.691351	0.545956	0.501953	0.59228	0.775328	0.947506	1	1	1	1	1	1	1	1	1	1	1	1	1	1	1	1	1	1	1	1	1	1	1	1	1	1	1	0.982147	0.839786	0.65409	0.523568	0.500516	0.577307	0.74179	0.908594	1	1	1	1	1	1	1	1	1	1	1	1	1	1	1	1	1	1	0.964368	0.823921	0.640666	0.51482	0.524209	0.671274	0.871292	1	1	1	1	1	1	1	1	1	1	1	1	1	1	1	1	1	1	1	1	1	1	1	1	1	1	1	0.907261	0.724163	0.558007	0.500516	0.559992	0.735813	0.862626	0.988661	1	1	1	1	1	1	1	1	1	1	1	1	1	1	1	1	1	1	1	0.927748	0.749935	0.570069	0.500292	0.590176	0.787758	0.965369	1	1	1	1	1	1	1	1	1	1	1	1	1	1	1	1	1	1	1	1	1	1	1	1	1	1	0.920358	0.744241	0.580102	0.559992	0.773538	0.956929	1	1	1	1	1	1	1	1	1	1	1	1	1	1	1	1	1	1	1	1	1	0.989352	0.846935	0.644469	0.510769	0.537491	0.71114	0.914321	1	1	1	1	1	1	1	1	1	1	1	1	1	1	1	1	1	1	1	1	1	1	1	1	1	0.910506	0.776515	0.663147	0.650059	0.773538	0.811989	1	1	1	1	1	1	1	1	1	1	1	1	1	1	1	1	1	1	1	1	1	1	1	0.916971	0.718187	0.54