# vtk DataFile Version 2.0
output2.vtk
ASCII 
DATASET STRUCTURED_GRID
DIMENSIONS 60 100 1
POINTS 6000 float
0 0 1
0 1 1
0 2 1
0 3 1
0 4 1
0 5 1
0 6 1
0 7 1
0 8 1
0 9 1
0 10 1
0 11 1
0 12 1
0 13 1
0 14 1
0 15 1
0 16 1
0 17 1
0 18 1
0 19 1
0 20 1
0 21 1
0 22 1
0 23 1
0 24 1
0 25 1
0 26 1
0 27 1
0 28 1
0 29 1
0 30 1
0 31 1
0 32 1
0 33 1
0 34 1
0 35 1
0 36 1
0 37 1
0 38 1
0 39 1
0 40 1
0 41 1
0 42 1
0 43 1
0 44 1
0 45 1
0 46 1
0 47 1
0 48 1
0 49 1
0 50 1
0 51 1
0 52 1
0 53 1
0 54 1
0 55 1
0 56 1
0 57 1
0 58 1
0 59 1
1 0 1
1 1 1
1 2 1
1 3 1
1 4 1
1 5 1
1 6 1
1 7 1
1 8 1
1 9 1
1 10 1
1 11 1
1 12 1
1 13 1
1 14 1
1 15 1
1 16 1
1 17 1
1 18 1
1 19 1
1 20 1
1 21 1
1 22 1
1 23 1
1 24 1
1 25 1
1 26 1
1 27 1
1 28 1
1 29 1
1 30 1
1 31 1
1 32 1
1 33 1
1 34 1
1 35 1
1 36 1
1 37 1
1 38 1
1 39 1
1 40 1
1 41 1
1 42 1
1 43 1
1 44 1
1 45 1
1 46 1
1 47 1
1 48 1
1 49 1
1 50 1
1 51 1
1 52 1
1 53 1
1 54 1
1 55 1
1 56 1
1 57 1
1 58 1
1 59 1
2 0 1
2 1 1
2 2 1
2 3 1
2 4 1
2 5 1
2 6 1
2 7 1
2 8 1
2 9 1
2 10 1
2 11 1
2 12 1
2 13 1
2 14 1
2 15 1
2 16 1
2 17 1
2 18 1
2 19 1
2 20 1
2 21 1
2 22 1
2 23 1
2 24 1
2 25 1
2 26 1
2 27 1
2 28 1
2 29 1
2 30 1
2 31 1
2 32 1
2 33 1
2 34 1
2 35 1
2 36 1
2 37 1
2 38 1
2 39 1
2 40 1
2 41 1
2 42 1
2 43 1
2 44 1
2 45 1
2 46 1
2 47 1
2 48 1
2 49 1
2 50 1
2 51 1
2 52 1
2 53 1
2 54 1
2 55 1
2 56 1
2 57 1
2 58 1
2 59 1
3 0 1
3 1 1
3 2 1
3 3 1
3 4 1
3 5 1
3 6 1
3 7 1
3 8 1
3 9 1
3 10 1
3 11 1
3 12 1
3 13 1
3 14 1
3 15 1
3 16 1
3 17 1
3 18 1
3 19 1
3 20 1
3 21 1
3 22 1
3 23 1
3 24 1
3 25 1
3 26 1
3 27 1
3 28 1
3 29 1
3 30 1
3 31 1
3 32 1
3 33 1
3 34 1
3 35 1
3 36 1
3 37 1
3 38 1
3 39 1
3 40 1
3 41 1
3 42 1
3 43 1
3 44 1
3 45 1
3 46 1
3 47 1
3 48 1
3 49 1
3 50 1
3 51 1
3 52 1
3 53 1
3 54 1
3 55 1
3 56 1
3 57 1
3 58 1
3 59 1
4 0 1
4 1 1
4 2 1
4 3 1
4 4 1
4 5 1
4 6 1
4 7 1
4 8 1
4 9 1
4 10 1
4 11 1
4 12 1
4 13 1
4 14 1
4 15 1
4 16 1
4 17 1
4 18 1
4 19 1
4 20 1
4 21 1
4 22 1
4 23 1
4 24 1
4 25 1
4 26 1
4 27 1
4 28 1
4 29 1
4 30 1
4 31 1
4 32 1
4 33 1
4 34 1
4 35 1
4 36 1
4 37 1
4 38 1
4 39 1
4 40 1
4 41 1
4 42 1
4 43 1
4 44 1
4 45 1
4 46 1
4 47 1
4 48 1
4 49 1
4 50 1
4 51 1
4 52 1
4 53 1
4 54 1
4 55 1
4 56 1
4 57 1
4 58 1
4 59 1
5 0 1
5 1 1
5 2 1
5 3 1
5 4 1
5 5 1
5 6 1
5 7 1
5 8 1
5 9 1
5 10 1
5 11 1
5 12 1
5 13 1
5 14 1
5 15 1
5 16 1
5 17 1
5 18 1
5 19 1
5 20 1
5 21 1
5 22 1
5 23 1
5 24 1
5 25 1
5 26 1
5 27 1
5 28 1
5 29 1
5 30 1
5 31 1
5 32 1
5 33 1
5 34 1
5 35 1
5 36 1
5 37 1
5 38 1
5 39 1
5 40 1
5 41 1
5 42 1
5 43 1
5 44 1
5 45 1
5 46 1
5 47 1
5 48 1
5 49 1
5 50 1
5 51 1
5 52 1
5 53 1
5 54 1
5 55 1
5 56 1
5 57 1
5 58 1
5 59 1
6 0 1
6 1 1
6 2 1
6 3 1
6 4 1
6 5 1
6 6 1
6 7 1
6 8 1
6 9 1
6 10 1
6 11 1
6 12 1
6 13 1
6 14 1
6 15 1
6 16 1
6 17 1
6 18 1
6 19 1
6 20 1
6 21 1
6 22 1
6 23 1
6 24 1
6 25 1
6 26 1
6 27 1
6 28 1
6 29 1
6 30 1
6 31 1
6 32 1
6 33 1
6 34 1
6 35 1
6 36 1
6 37 1
6 38 1
6 39 1
6 40 1
6 41 1
6 42 1
6 43 1
6 44 1
6 45 1
6 46 1
6 47 1
6 48 1
6 49 1
6 50 1
6 51 1
6 52 1
6 53 1
6 54 1
6 55 1
6 56 1
6 57 1
6 58 1
6 59 1
7 0 1
7 1 1
7 2 1
7 3 1
7 4 1
7 5 1
7 6 1
7 7 1
7 8 1
7 9 1
7 10 1
7 11 1
7 12 1
7 13 1
7 14 1
7 15 1
7 16 1
7 17 1
7 18 1
7 19 1
7 20 1
7 21 1
7 22 1
7 23 1
7 24 1
7 25 1
7 26 1
7 27 1
7 28 1
7 29 1
7 30 1
7 31 1
7 32 1
7 33 1
7 34 1
7 35 1
7 36 1
7 37 1
7 38 1
7 39 1
7 40 1
7 41 1
7 42 1
7 43 1
7 44 1
7 45 1
7 46 1
7 47 1
7 48 1
7 49 1
7 50 1
7 51 1
7 52 1
7 53 1
7 54 1
7 55 1
7 56 1
7 57 1
7 58 1
7 59 1
8 0 1
8 1 1
8 2 1
8 3 1
8 4 1
8 5 1
8 6 1
8 7 1
8 8 1
8 9 1
8 10 1
8 11 1
8 12 1
8 13 1
8 14 1
8 15 1
8 16 1
8 17 1
8 18 1
8 19 1
8 20 1
8 21 1
8 22 1
8 23 1
8 24 1
8 25 1
8 26 1
8 27 1
8 28 1
8 29 1
8 30 1
8 31 1
8 32 1
8 33 1
8 34 1
8 35 1
8 36 1
8 37 1
8 38 1
8 39 1
8 40 1
8 41 1
8 42 1
8 43 1
8 44 1
8 45 1
8 46 1
8 47 1
8 48 1
8 49 1
8 50 1
8 51 1
8 52 1
8 53 1
8 54 1
8 55 1
8 56 1
8 57 1
8 58 1
8 59 1
9 0 1
9 1 1
9 2 1
9 3 1
9 4 1
9 5 1
9 6 1
9 7 1
9 8 1
9 9 1
9 10 1
9 11 1
9 12 1
9 13 1
9 14 1
9 15 1
9 16 1
9 17 1
9 18 1
9 19 1
9 20 1
9 21 1
9 22 1
9 23 1
9 24 1
9 25 1
9 26 1
9 27 1
9 28 1
9 29 1
9 30 1
9 31 1
9 32 1
9 33 1
9 34 1
9 35 1
9 36 1
9 37 1
9 38 1
9 39 1
9 40 1
9 41 1
9 42 1
9 43 1
9 44 1
9 45 1
9 46 1
9 47 1
9 48 1
9 49 1
9 50 1
9 51 1
9 52 1
9 53 1
9 54 1
9 55 1
9 56 1
9 57 1
9 58 1
9 59 1
10 0 1
10 1 1
10 2 1
10 3 1
10 4 1
10 5 1
10 6 1
10 7 1
10 8 1
10 9 1
10 10 1
10 11 1
10 12 1
10 13 1
10 14 1
10 15 1
10 16 1
10 17 1
10 18 1
10 19 1
10 20 1
10 21 1
10 22 1
10 23 1
10 24 1
10 25 1
10 26 1
10 27 1
10 28 1
10 29 1
10 30 1
10 31 1
10 32 1
10 33 1
10 34 1
10 35 1
10 36 1
10 37 1
10 38 1
10 39 1
10 40 1
10 41 1
10 42 1
10 43 1
10 44 1
10 45 1
10 46 1
10 47 1
10 48 1
10 49 1
10 50 1
10 51 1
10 52 1
10 53 1
10 54 1
10 55 1
10 56 1
10 57 1
10 58 1
10 59 1
11 0 1
11 1 1
11 2 1
11 3 1
11 4 1
11 5 1
11 6 1
11 7 1
11 8 1
11 9 1
11 10 1
11 11 1
11 12 1
11 13 1
11 14 1
11 15 1
11 16 1
11 17 1
11 18 1
11 19 1
11 20 1
11 21 1
11 22 1
11 23 1
11 24 1
11 25 1
11 26 1
11 27 1
11 28 1
11 29 1
11 30 1
11 31 1
11 32 1
11 33 1
11 34 1
11 35 1
11 36 1
11 37 1
11 38 1
11 39 1
11 40 1
11 41 1
11 42 1
11 43 1
11 44 1
11 45 1
11 46 1
11 47 1
11 48 1
11 49 1
11 50 1
11 51 1
11 52 1
11 53 1
11 54 1
11 55 1
11 56 1
11 57 1
11 58 1
11 59 1
12 0 1
12 1 1
12 2 1
12 3 1
12 4 1
12 5 1
12 6 1
12 7 1
12 8 1
12 9 1
12 10 1
12 11 1
12 12 1
12 13 1
12 14 1
12 15 1
12 16 1
12 17 1
12 18 1
12 19 1
12 20 1
12 21 1
12 22 1
12 23 1
12 24 1
12 25 1
12 26 1
12 27 1
12 28 1
12 29 1
12 30 1
12 31 1
12 32 1
12 33 1
12 34 1
12 35 1
12 36 1
12 37 1
12 38 1
12 39 1
12 40 1
12 41 1
12 42 1
12 43 1
12 44 1
12 45 1
12 46 1
12 47 1
12 48 1
12 49 1
12 50 1
12 51 1
12 52 1
12 53 1
12 54 1
12 55 1
12 56 1
12 57 1
12 58 1
12 59 1
13 0 1
13 1 1
13 2 1
13 3 1
13 4 1
13 5 1
13 6 1
13 7 1
13 8 1
13 9 1
13 10 1
13 11 1
13 12 1
13 13 1
13 14 1
13 15 1
13 16 1
13 17 1
13 18 1
13 19 1
13 20 1
13 21 1
13 22 1
13 23 1
13 24 1
13 25 1
13 26 1
13 27 1
13 28 1
13 29 1
13 30 1
13 31 1
13 32 1
13 33 1
13 34 1
13 35 1
13 36 1
13 37 1
13 38 1
13 39 1
13 40 1
13 41 1
13 42 1
13 43 1
13 44 1
13 45 1
13 46 1
13 47 1
13 48 1
13 49 1
13 50 1
13 51 1
13 52 1
13 53 1
13 54 1
13 55 1
13 56 1
13 57 1
13 58 1
13 59 1
14 0 1
14 1 1
14 2 1
14 3 1
14 4 1
14 5 1
14 6 1
14 7 1
14 8 1
14 9 1
14 10 1
14 11 1
14 12 1
14 13 1
14 14 1
14 15 1
14 16 1
14 17 1
14 18 1
14 19 1
14 20 1
14 21 1
14 22 1
14 23 1
14 24 1
14 25 1
14 26 1
14 27 1
14 28 1
14 29 1
14 30 1
14 31 1
14 32 1
14 33 1
14 34 1
14 35 1
14 36 1
14 37 1
14 38 1
14 39 1
14 40 1
14 41 1
14 42 1
14 43 1
14 44 1
14 45 1
14 46 1
14 47 1
14 48 1
14 49 1
14 50 1
14 51 1
14 52 1
14 53 1
14 54 1
14 55 1
14 56 1
14 57 1
14 58 1
14 59 1
15 0 1
15 1 1
15 2 1
15 3 1
15 4 1
15 5 1
15 6 1
15 7 1
15 8 1
15 9 1
15 10 1
15 11 1
15 12 1
15 13 1
15 14 1
15 15 1
15 16 1
15 17 1
15 18 1
15 19 1
15 20 1
15 21 1
15 22 1
15 23 1
15 24 1
15 25 1
15 26 1
15 27 1
15 28 1
15 29 1
15 30 1
15 31 1
15 32 1
15 33 1
15 34 1
15 35 1
15 36 1
15 37 1
15 38 1
15 39 1
15 40 1
15 41 1
15 42 1
15 43 1
15 44 1
15 45 1
15 46 1
15 47 1
15 48 1
15 49 1
15 50 1
15 51 1
15 52 1
15 53 1
15 54 1
15 55 1
15 56 1
15 57 1
15 58 1
15 59 1
16 0 1
16 1 1
16 2 1
16 3 1
16 4 1
16 5 1
16 6 1
16 7 1
16 8 1
16 9 1
16 10 1
16 11 1
16 12 1
16 13 1
16 14 1
16 15 1
16 16 1
16 17 1
16 18 1
16 19 1
16 20 1
16 21 1
16 22 1
16 23 1
16 24 1
16 25 1
16 26 1
16 27 1
16 28 1
16 29 1
16 30 1
16 31 1
16 32 1
16 33 1
16 34 1
16 35 1
16 36 1
16 37 1
16 38 1
16 39 1
16 40 1
16 41 1
16 42 1
16 43 1
16 44 1
16 45 1
16 46 1
16 47 1
16 48 1
16 49 1
16 50 1
16 51 1
16 52 1
16 53 1
16 54 1
16 55 1
16 56 1
16 57 1
16 58 1
16 59 1
17 0 1
17 1 1
17 2 1
17 3 1
17 4 1
17 5 1
17 6 1
17 7 1
17 8 1
17 9 1
17 10 1
17 11 1
17 12 1
17 13 1
17 14 1
17 15 1
17 16 1
17 17 1
17 18 1
17 19 1
17 20 1
17 21 1
17 22 1
17 23 1
17 24 1
17 25 1
17 26 1
17 27 1
17 28 1
17 29 1
17 30 1
17 31 1
17 32 1
17 33 1
17 34 1
17 35 1
17 36 1
17 37 1
17 38 1
17 39 1
17 40 1
17 41 1
17 42 1
17 43 1
17 44 1
17 45 1
17 46 1
17 47 1
17 48 1
17 49 1
17 50 1
17 51 1
17 52 1
17 53 1
17 54 1
17 55 1
17 56 1
17 57 1
17 58 1
17 59 1
18 0 1
18 1 1
18 2 1
18 3 1
18 4 1
18 5 1
18 6 1
18 7 1
18 8 1
18 9 1
18 10 1
18 11 1
18 12 1
18 13 1
18 14 1
18 15 1
18 16 1
18 17 1
18 18 1
18 19 1
18 20 1
18 21 1
18 22 1
18 23 1
18 24 1
18 25 1
18 26 1
18 27 1
18 28 1
18 29 1
18 30 1
18 31 1
18 32 1
18 33 1
18 34 1
18 35 1
18 36 1
18 37 1
18 38 1
18 39 1
18 40 1
18 41 1
18 42 1
18 43 1
18 44 1
18 45 1
18 46 1
18 47 1
18 48 1
18 49 1
18 50 1
18 51 1
18 52 1
18 53 1
18 54 1
18 55 1
18 56 1
18 57 1
18 58 1
18 59 1
19 0 1
19 1 1
19 2 1
19 3 1
19 4 1
19 5 1
19 6 1
19 7 1
19 8 1
19 9 1
19 10 1
19 11 1
19 12 1
19 13 1
19 14 1
19 15 1
19 16 1
19 17 1
19 18 1
19 19 1
19 20 1
19 21 1
19 22 1
19 23 1
19 24 1
19 25 1
19 26 1
19 27 1
19 28 1
19 29 1
19 30 1
19 31 1
19 32 1
19 33 1
19 34 1
19 35 1
19 36 1
19 37 1
19 38 1
19 39 1
19 40 1
19 41 1
19 42 1
19 43 1
19 44 1
19 45 1
19 46 1
19 47 1
19 48 1
19 49 1
19 50 1
19 51 1
19 52 1
19 53 1
19 54 1
19 55 1
19 56 1
19 57 1
19 58 1
19 59 1
20 0 1
20 1 1
20 2 1
20 3 1
20 4 1
20 5 1
20 6 1
20 7 1
20 8 1
20 9 1
20 10 1
20 11 1
20 12 1
20 13 1
20 14 1
20 15 1
20 16 1
20 17 1
20 18 1
20 19 1
20 20 1
20 21 1
20 22 1
20 23 1
20 24 1
20 25 1
20 26 1
20 27 1
20 28 1
20 29 1
20 30 1
20 31 1
20 32 1
20 33 1
20 34 1
20 35 1
20 36 1
20 37 1
20 38 1
20 39 1
20 40 1
20 41 1
20 42 1
20 43 1
20 44 1
20 45 1
20 46 1
20 47 1
20 48 1
20 49 1
20 50 1
20 51 1
20 52 1
20 53 1
20 54 1
20 55 1
20 56 1
20 57 1
20 58 1
20 59 1
21 0 1
21 1 1
21 2 1
21 3 1
21 4 1
21 5 1
21 6 1
21 7 1
21 8 1
21 9 1
21 10 1
21 11 1
21 12 1
21 13 1
21 14 1
21 15 1
21 16 1
21 17 1
21 18 1
21 19 1
21 20 1
21 21 1
21 22 1
21 23 1
21 24 1
21 25 1
21 26 1
21 27 1
21 28 1
21 29 1
21 30 1
21 31 1
21 32 1
21 33 1
21 34 1
21 35 1
21 36 1
21 37 1
21 38 1
21 39 1
21 40 1
21 41 1
21 42 1
21 43 1
21 44 1
21 45 1
21 46 1
21 47 1
21 48 1
21 49 1
21 50 1
21 51 1
21 52 1
21 53 1
21 54 1
21 55 1
21 56 1
21 57 1
21 58 1
21 59 1
22 0 1
22 1 1
22 2 1
22 3 1
22 4 1
22 5 1
22 6 1
22 7 1
22 8 1
22 9 1
22 10 1
22 11 1
22 12 1
22 13 1
22 14 1
22 15 1
22 16 1
22 17 1
22 18 1
22 19 1
[...]
POINT_DATA 6000
SCALARS CON float 1
LOOKUP_TABLE default
1	1	1	1	1	1	1	1	1	1	0.926138	0.695514	0.526181	0.541055	0.746169	0.97327	1	1	1	1	1	1	1	1	1	1	1	1	1	1	1	1	1	0.979022	0.794829	0.618035	0.532718	0.532523	0.552013	0.699486	0.742085	0.665069	0.671425	0.767365	0.886172	0.951075	0.928071	0.88744	0.758715	0.643574	0.59108	0.679351	0.854467	1	1	1	1	1	1	1	1	1	1	1	1	1	1	1	1	1	0.924553	0.696064	0.52394	0.545256	0.764153	0.978665	1	1	1	1	1	1	1	1	1	1	1	1	1	1	1	1	1	1	0.83806	0.592452	0.439139	0.402016	0.442229	0.630106	0.777172	0.738308	0.785223	0.840659	0.950626	1	1	1	0.987425	0.848026	0.710806	0.703922	0.79137	0.929353	0.962601	1	1	1	1	1	1	1	1	1	1	1	1	1	1	1	0.935543	0.705597	0.523074	0.549382	0.781557	0.942179	1	1	1	1	1	1	1	1	1	1	1	1	1	1	1	1	1	1	0.856903	0.593063	0.421609	0.395351	0.48458	0.68893	0.887694	0.88569	0.933667	0.968302	1	1	1	1	1	0.910922	0.648737	0.548349	0.626919	0.796142	0.940639	0.988982	1	1	1	1	1	1	1	1	1	1	1	1	1	1	0.942905	0.741538	0.535413	0.565927	0.783788	0.999548	1	1	1	1	1	1	1	1	1	1	1	1	1	1	1	1	1	1	0.850499	0.616332	0.465141	0.485616	0.641123	0.834246	1	1	1	1	1	1	1	1	1	1	0.770974	0.563279	0.573115	0.677548	0.852749	0.936722	1	1	1	1	1	1	1	1	1	1	1	1	1	1	0.980863	0.813422	0.606926	0.65571	0.788201	1	1	1	1	1	1	1	1	1	1	1	1	1	1	1	1	1	1	0.993659	0.869201	0.680011	0.590491	0.652951	0.821823	0.966856	1	1	1	1	1	1	1	1	1	1	0.931987	0.689941	0.565787	0.593066	0.716462	0.89218	0.93208	1	1	1	1	1	1	1	1	1	1	1	1	1	0.999609	0.798812	0.58465	0.616296	0.875177	1	1	1	1	1	1	1	1	1	1	1	1	1	1	1	1	1	0.970271	0.907921	0.794158	0.703886	0.736177	0.892269	1	1	1	1	1	1	1	1	1	1	1	1	1	0.865603	0.621772	0.576121	0.615974	0.751903	0.884169	0.951773	1	1	1	1	1	1	1	1	1	1	1	1	1	0.754506	0.539912	0.620412	0.878419	1	1	1	1	1	1	1	1	1	1	1	1	1	1	1	1	1	0.903034	0.750446	0.677638	0.664149	0.792148	0.981216	1	1	1	1	1	1	1	1	1	1	1	1	1	1	0.803984	0.60818	0.576183	0.636766	0.781173	0.873318	0.968975	1	0.984689	1	1	1	1	1	1	1	1	1	0.994009	0.720614	0.529153	0.631481	0.885661	1	1	1	1	1	1	1	1	1	1	1	1	1	1	1	1	0.966663	0.808635	0.708278	0.650164	0.690259	0.871811	1	1	1	1	1	1	1	1	1	1	1	1	1	1	1	0.977737	0.740711	0.615813	0.582257	0.655079	0.828236	0.878984	0.98467	0.908524	0.997575	1	1	1	1	1	1	1	1	0.955392	0.693449	0.517594	0.645485	0.906184	1	1	1	1	1	1	1	1	1	1	1	1	1	1	1	1	0.888082	0.758125	0.673897	0.642701	0.724402	0.950923	1	1	1	1	1	1	1	1	1	1	1	1	1	1	1	1	0.925111	0.688429	0.601415	0.588103	0.686307	0.86647	0.908567	0.926128	0.957518	1	1	1	1	1	1	1	0.987407	0.921211	0.667963	0.511642	0.660167	0.922162	1	1	1	1	1	1	1	1	1	1	1	1	1	1	1	0.942898	0.818093	0.703152	0.597485	0.612495	0.727198	0.961618	1	1	1	1	1	1	1	1	1	1	1	1	1	1	1	1	1	0.884635	0.671123	0.593866	0.594988	0.717481	0.915359	0.745218	0.924672	1	1	1	1	1	1	1	0.964338	0.885808	0.644664	0.509582	0.680821	0.943482	1	1	1	1	1	1	1	1	1	1	1	1	1	1	0.978645	0.873778	0.7671	0.613545	0.577439	0.656792	0.88474	1	1	1	1	1	1	1	1	1	1	1	1	1	1	1	1	1	1	1	0.851508	0.663105	0.587753	0.604095	0.735979	0.624025	0.750166	0.91435	1	1	1	1	1	1	1	0.917329	0.736174	0.619401	0.7676	0.975181	1	1	1	1	1	1	1	1	1	1	1	1	1	1	0.917862	0.832211	0.654765	0.569263	0.604771	0.799291	1	1	1	1	1	1	1	1	1	1	1	1	1	1	1	1	1	1	1	1	1	0.813289	0.641771	0.575624	0.618931	0.567089	0.621292	0.874074	1	1	1	1	1	1	0.932242	0.803391	0.668099	0.676111	0.849904	1	1	1	1	1	1	1	1	1	1	1	1	1	1	0.946525	0.88889	0.698282	0.578995	0.571661	0.726027	0.949465	1	1	1	1	1	1	1	1	1	1	1	1	1	1	1	1	1	1	1	1	1	0.995975	0.792895	0.59922	0.565895	0.615046	0.678646	0.745566	0.799819	0.860495	0.922619	1	1	0.941642	0.755821	0.596718	0.52573	0.557259	0.768229	0.994348	1	1	1	1	1	1	1	1	1	1	1	1	0.96529	0.93637	0.742867	0.594427	0.551807	0.668364	0.892102	1	1	1	1	1	1	1	1	1	1	1	1	1	1	1	1	1	1	1	1	1	1	0.992205	0.970379	0.770989	0.614969	0.814418	0.660015	0.568743	0.558903	0.611984	0.704737	0.853626	0.850765	0.794347	0.58905	0.444014	0.370012	0.43601	0.645771	0.886818	1	1	1	1	1	1	1	1	1	1	1	0.980739	0.968285	0.784751	0.616012	0.540279	0.622345	0.838173	1	1	1	1	1	1	1	1	1	1	1	1	1	1	1	1	1	1	1	1	1	1	1	1	0.975339	0.933654	0.814395	0.862681	0.621357	0.430659	0.375586	0.425263	0.517238	0.668626	0.631935	0.69178	0.507209	0.395199	0.336182	0.389231	0.55988	0.783339	1	1	1	1	1	1	1	1	1	1	0.992664	0.988743	0.818982	0.636717	0.533369	0.584465	0.789293	0.992736	1	1	1	1	1	1	1	1	1	1	1	1	1	1	1	1	1	1	1	1	1	1	1	1	1	1	0.862684	0.868633	0.62095	0.418461	0.336791	0.378713	0.480209	0.64446	0.653167	0.755723	0.628522	0.498154	0.430447	0.42925	0.515435	0.72335	0.88311	1	1	1	1	1	1	1	1	0.999562	1	0.852416	0.656405	0.532907	0.559324	0.752837	0.958919	1	1	1	1	1	1	1	1	1	1	1	1	1	1	1	1	1	1	1	1	1	1	1	1	1	1	1	0.868632	0.922401	0.705368	0.521387	0.447343	0.497308	0.613451	0.788867	0.848673	0.927533	0.864895	0.728707	0.633717	0.560934	0.57929	0.606138	0.708848	0.874651	1	1	1	1	1	1	1	1	0.878819	0.677678	0.536321	0.543331	0.723516	0.930221	1	1	1	1	1	1	1	1	1	1	1	1	1	1	1	1	1	1	1	1	1	1	1	1	1	1	1	1	0.9224	0.9087	0.762103	0.669458	0.693193	0.806434	0.861479	0.970499	1	1	1	0.951916	0.856451	0.794157	0.655975	0.53619	0.553461	0.693627	0.8712	1	1	1	1	1	1	0.897914	0.694944	0.542807	0.530214	0.695394	0.901462	1	1	1	1	1	1	1	1	1	1	1	1	1	1	1	1	1	1	1	1	1	1	1	1	1	1	1	1	0.993823	0.908697	0.713775	0.734858	0.787245	0.88862	1	1	1	1	1	1	1	1	0.938082	0.809875	0.652465	0.543817	0.54194	0.684095	0.857547	1	1	1	1	0.904647	0.708749	0.550303	0.52148	0.671557	0.877091	1	1	1	1	1	1	1	1	1	1	1	1	1	1	1	1	1	1	1	1	1	1	1	1	1	1	1	1	1	0.886806	0.713767	0.636414	0.615942	0.772504	0.967582	1	1	1	1	1	1	1	1	1	0.977906	0.81987	0.663459	0.549777	0.536437	0.668353	0.8001	0.774982	0.809644	0.833337	0.69587	0.558757	0.515166	0.650835	0.85305	1	1	1	1	1	1	1	1	1	1	1	1	1	1	1	1	1	1	1	1	1	1	1	1	1	1	1	1	1	0.98232	0.746711	0.636413	0.617275	0.665881	0.838666	0.929399	0.991487	1	1	1	1	1	1	1	1	1	0.994726	0.836644	0.671439	0.54959	0.502788	0.564222	0.585581	0.602095	0.585944	0.496179	0.49288	0.629411	0.827886	1	1	1	1	1	1	1	1	1	1	1	1	1	1	1	1	1	1	1	1	1	1	1	1	1	1	1	1	1	1	0.844663	0.699704	0.617275	0.625355	0.745241	0.841609	0.950907	1	1	1	1	1	1	1	1	1	1	1	1	0.835824	0.627597	0.451696	0.386844	0.413786	0.437452	0.397136	0.376549	0.515189	0.745154	0.979614	1	1	1	1	1	1	1	1	1	1	1	1	1	1	1	1	1	1	1	1	1	1	1	1	1	1	1	1	1	0.959149	0.761241	0.642595	0.625355	0.664032	0.759796	0.88405	1	1	1	1	1	1	1	1	1	1	1	1	1	0.961268	0.731365	0.496184	0.356774	0.368777	0.410015	0.34831	0.399752	0.576448	0.835947	1	1	1	1	1	1	1	1	1	1	1	1	1	1	1	1	1	1	1	1	1	1	1	1	1	1	1	1	1	1	0.834556	0.687651	0.610722	0.664033	0.718485	0.794709	0.960401	1	1	1	1	1	1	1	1	1	1	1	1	1	1	0.823792	0.587014	0.449137	0.451796	0.538298	0.474129	0.500808	0.649224	0.883188	1	1	1	1	1	1	1	1	1	1	1	1	1	1	1	1	1	1	1	1	1	1	1	1	1	1	1	1	1	0.961664	0.762182	0.629062	0.609767	0.718507	0.710738	0.890507	1	1	1	1	1	1	1	1	1	1	1	1	1	1	1	0.886006	0.667553	0.565549	0.575976	0.673384	0.594796	0.617699	0.689517	0.874533	1	1	1	1	1	1	1	1	1	1	1	1	1	1	1	1	1	1	1	1	1	1	1	1	1	1	1	1	1	0.854547	0.687479	0.597286	0.645887	0.71081	0.79483	0.962362	1	1	1	1	1	1	1	1	1	1	1	1	1	1	1	0.886063	0.695929	0.638771	0.696861	0.744528	0.633632	0.715024	0.672626	0.754007	0.938501	0.969769	1	1	1	1	1	1	1	1	1	1	1	1	1	1	1	1	1	1	1	1	1	1	1	1	1	1	0.989103	0.751873	0.62389	0.598012	0.689764	0.79483	0.88545	1	1	1	1	1	1	1	1	1	1	1	1	1	1	1	0.928228	0.724659	0.549916	0.593531	0.731442	0.814242	0.833226	0.721526	0.50275	0.55438	0.73083	0.920762	1	1	1	1	1	1	1	1	1	1	1	1	1	1	1	1	1	1	1	1	1	1	1	1	1	1	0.890877	0.698761	0.593725	0.632847	0.710699	0.88545	0.955341	1	1	1	1	1	1	1	1	1	1	1	1	1	1	1	0.912376	0.70248	0.528451	0.521171	0.753389	0.895911	0.913174	0.763578	0.530864	0.512552	0.645186	0.845103	0.988333	1	1	1	1	1	1	1	1	1	1	1	1	1	1	1	1	1	1	1	1	1	1	1	1	1	0.781344	0.643154	0.591291	0.689841	0.777493	0.955341	1	1	1	1	1	1	1	1	1	1	1	1	1	1	1	1	0.887518	0.672365	0.515969	0.535229	0.727374	0.960672	0.978457	0.780021	0.589901	0.500445	0.567717	0.748392	0.929911	1	1	1	1	1	1	1	1	1	1	1	1	1	1	1	1	1	1	1	1	1	1	1	1	0.948224	0.724845	0.607641	0.613731	0.750629	0.862867	1	1	1	1	1	1	1	1	1	1	1	1	1	1	1	1	1	0.851082	0.634761	0.505036	0.557535	0.756098	0.992664	1	0.873039	0.67572	0.525697	0.514964	0.647411	0.840807	0.981371	1	1	1	1	1	1	1	1	1	1	1	1	1	1	1	1	1	1	1	1	1	1	1	0.849503	0.684653	0.594358	0.658277	0.786338	0.929962	1	1	1	1	1	1	1	1	1	1	1	1	1	1	1	1	0.973302	0.797925	0.591565	0.499999	0.590852	0.802383	0.984531	1	0.950989	0.77735	0.589405	0.500724	0.561049	0.731093	0.979092	1	1	1	1	1	1	1	1	1	1	1	1	1	1	1	1	1	1	1	1	1	1	1	0.768745	0.638754	0.601512	0.718354	0.831218	0.979883	1	1	1	1	1	1	1	1	1	1	1	1	1	1	1	1	0.925828	0.730534	0.548365	0.506758	0.637948	0.852494	1	1	1	0.877553	0.683703	0.563166	0.592903	0.748482	0.936597	1	1	1	1	1	1	1	1	1	1	1	1	1	1	1	1	1	1	1	1	1	1	0.953169	0.718386	0.608899	0.62426	0.788127	0.87897	1	1	1	1	1	1	1	1	1	1	1	1	1	1	1	1	0.994251	0.856956	0.653814	0.513857	0.532352	0.701129	0.906013	1	1	1	0.956281	0.837407	0.705276	0.611852	0.64243	0.777512	0.93352	1	1	1	1	1	1	1	1	1	1	1	1	1	1	1	1	1	1	1	1	1	0.886496	0.678624	0.59566	0.660649	0.859692	0.931815	1	1	1	1	1	1	1	1	1	1	1	1	1	1	1	1	0.937721	0.762131	0.577616	0.500012	0.583444	0.779167	0.960095	1	1	1	1	0.949039	0.748361	0.564869	0.50044	0.567678	0.707564	0.838606	0.913423	0.964989	1	1	1	1	1	1	1	1	1	1	1	1	1	1	1	1	1	1	0.820793	0.642477	0.594869	0.704464	0.921772	0.973453	1	1	1	1	1	1	1	1	1	1	1	1	1	1	1	0.976583	0.841634	0.654782	0.519529	0.51959	0.662129	0.863806	1	1	1	1	1	0.935337	0.716479	0.491262	0.372644	0.390611	0.493455	0.603781	0.660221	0.703307	0.745649	0.795841	0.854079	0.91781	0.977243	1	1	1	1	1	1	1	1	1	1	1	1	1	0.763326	0.612961	0.602751	0.749052	0.94984	1	1	1	1	1	1	1	1	1	1	1	1	1	1	1	0.99196	0.885894	0.715019	0.558116	0.500438	0.581726	0.763477	0.941317	1	1	1	1	1	0.932446	0.717212	0.5053	0.389865	0.391039	0.460313	0.521118	0.520452	0.51767	0.522985	0.542008	0.585408	0.641279	0.705587	0.769054	0.83551	0.903959	0.962456	1	1	1	1	1	1	1	1	0.990492	0.716474	0.591915	0.616031	0.793016	0.972765	1	1	1	1	1	1	1	1	1	1	1	1	1	1	0.990545	0.898381	0.745528	0.589629	0.503609	0.537878	0.684905	0.872636	1	1	1	1	1	0.948407	0.851837	0.682816	0.549436	0.505459	0.545854	0.620197	0.66402	0.645626	0.617971	0.59425	0.575289	0.561112	0.541952	0.530425	0.532339	0.567105	0.629378	0.703601	0.768532	0.845001	0.922463	0.988553	1	1	1	1	0.95393	0.677165	0.579405	0.636098	0.825063	0.99193	1	1	1	1	1	1	1	1	1	1	1	1	1	0.971532	0.880305	0.742473	0.599887	0.509809	0.519068	0.635194	0.811538	0.961139	1	1	1	1	0.955351	0.805473	0.666636	0.622569	0.620828	0.684463	0.782007	0.86393	0.897043	0.873084	0.836475	0.798527	0.760251	0.721528	0.677894	0.633015	0.596446	0.573269	0.561968	0.538884	0.537257	0.5905	0.675443	0.751455	0.834896	0.930746	0.996017	0.943089	0.878811	0.645921	0.557084	0.628194	0.825123	1	1	1	1	1	1	1	1	1	1	1	1	0.984345	0.924931	0.829183	0.705924	0.5852	0.509052	0.514653	0.612833	0.773422	0.928618	1	1	1	1	0.99313	0.858932	0.674558	0.534799	0.516566	0.699455	0.864381	0.991468	1	1	1	0.999869	0.995489	0.989533	0.95569	0.911107	0.857757	0.804879	0.753637	0.698052	0.644628	0.596895	0.561614	0.527179	0.529894	0.601744	0.68667	0.806847	0.784549	0.783687	0.556464	0.476906	0.554241	0.749745	0.967396	1	1	1	0.939315	0.97108	0.98841	0.993868	0.989166	0.973183	0.944286	0.899141	0.831909	0.74147	0.640319	0.550744	0.502328	0.521163	0.614928	0.762248	0.912041	1	1	1	1	1	0.918162	0.737241	0.567725	0.499933	0.562586	0.715249	0.945712	1	1	1	1	1	1	1	1	0.977213	0.965984	0.962602	0.964761	0.931146	0.866669	0.795803	0.722265	0.650834	0.590007	0.539419	0.506608	0.568498	0.562541	0.571808	0.449315	0.391493	0.466216	0.633708	0.826666	0.95592	0.986115	0.939315	0.745576	0.789224	0.815757	0.824897	0.816667	0.791365	0.749761	0.693722	0.627543	0.561579	0.512974	0.501685	0.543784	0.642187	0.778292	0.91368	1	1	1	1	1	0.975843	0.819503	0.62607	0.509102	0.530135	0.670595	0.8501	0.976715	1	1	1	1	1	1	1	1	1	1	1	1	0.974669	0.968929	0.982457	0.96291	0.879592	0.789693	0.693193	0.612251	0.531839	0.422608	0.381812	0.408059	0.379406	0.447964	0.564974	0.681294	0.754565	0.721476	0.745576	0.555401	0.58225	0.600596	0.607156	0.600834	0.582963	0.556532	0.527676	0.505345	0.501511	0.528464	0.594398	0.697664	0.821461	0.933514	1	1	1	1	1	1	0.908976	0.715078	0.546223	0.5041	0.608256	0.792959	0.951497	1	1	1	1	1	1	1	1	1	1	1	1	1	1	1	1	0.993413	0.994654	1	0.932861	0.825567	0.668896	0.486777	0.362666	0.395069	0.498927	0.551732	0.48213	0.638297	0.542374	0.526431	0.555401	0.504964	0.500331	0.500048	0.500386	0.500106	0.500407	0.504984	0.519605	0.551141	0.605272	0.683815	0.782169	0.885317	0.968617	1	1	1	1	1	1	0.989443	0.829557	0.625102	0.505958	0.543476	0.709171	0.89896	1	1	1	1	1	1	1	1	1	1	1	1	1	1	1	1	1	1	1	1	0.996077	1	0.869644	0.655713	0.492202	0.448871	0.605503	0.656881	0.654613	0.731123	0.549681	0.519373	0.504964	0.633494	0.60565	0.590177	0.585253	0.590286	0.606136	0.634579	0.678033	0.737475	0.809834	0.884865	0.954453	1	1	1	1	1	1	1	1	0.939817	0.746126	0.558855	0.502479	0.61036	0.808617	0.970088	1	1	1	1	1	1	1	1	1	1	1	1	1	1	1	1	1	1	1	1	1	1	1	0.833532	0.64178	0.535923	0.637148	0.759556	0.866048	0.893904	0.73006	0.675076	0.633494	0.850838	0.824367	0.808197	0.802688	0.80851	0.825028	0.852532	0.890425	0.936099	0.980501	1	1	1	1	1	1	1	1	1	1	0.883114	0.672673	0.51892	0.526627	0.687371	0.89051	1	1	1	1	1	1	1	1	1	1	1	1	1	1	1	1	1	1	1	1	1	1	1	1	0.938592	0.729226	0.555472	0.622543	0.849206	0.961081	1	0.926523	0.886387	0.850838	1	1	0.997354	0.99528	0.997459	1	1	1	1	1	1	1	1	1	1	1	1	1	1	0.997635	0.828861	0.614606	0.501826	0.566716	0.761294	0.948878	1	1	1	1	1	1	1	1	1	1	1	1	1	1	1	1	1	1	1	1	1	1	1	1	0.937441	0.692179	0.517958	0.599795	0.833599	1	1	1	1	1	1	1	1	1	1	1	1	1	1	1	1	1	1	1	1	1	1	1	1	0.966882	0.775005	0.571374	0.501523	0.613207	0.82504	0.987772	1	1	1	1	1	1	1	1	1	1	1	1	1	1	1	1	1	1	1	1	1	1	1	1	0.865729	0.647314	0.507586	0.551773	0.750271	0.953215	1	1	1	1	1	1	1	1	1	1	1	1	1	1	1	1	1	1	1	1	1	1	1	0.930574	0.726025	0.541042	0.511755	0.658525	0.873717	1	1	1	1	1	1	1	1	1	1	1	1	1	1	1	1	1	1	1	1	1	1	1	1	1	0.885251	0.667312	0.513144	0.541656	0.734046	0.942909	1	1	1	1	1	1	1	1	1	1	1	1	1	1	1	1	1	1	1	1	1	1	1	0.972181	0.777785	0.569771	0.527502	0.698366	0.908346	1	1	1	1	1	1	1	1	1	1	1	1	1	1	1	1	1	1	1	1	1	1	1	1	1	0.892687	0.675275	0.515723	0.53785	0.727615	0.9383	1	1	1	1	1	1	1	1	1	1	1	1	1	1	1	1	1	1	1	1	1	1	0.988585	0.895464	0.735862	0.635437	0.691085	0.871765	0.998767	1	1	1	1	1	1	1	1	1	1	1	1	1	1	1	1	1	1	1	1	1	1	1	1	1	0.889202	0.671322	0.514301	0.539984	0.731502	0.941387	1	1	1	1	1	1	1	1	1	1	1	0.983776	0.953328	0.922253	0.89576	0.875427	0.861593	0.853707	0.850871	0.851908	0.854611	0.940451	0.863368	0.713356	0.599872	0.564598	0.676781	0.897583	1	1	1	1	1	1	1	1	1	1	1	1	1	1	1	1	1	1	1	1	1	1	1	1	1	1	0.874615	0.655513	0.509508	0.548591	0.746286	0.952503	1	1	1	1	1	1	1	1	0.962095	0.908697	0.854292	0.801905	0.752907	0.711498	0.67935	0.65624	0.641121	0.632874	0.63026	0.631796	0.636025	0.76316	0.696879	0.545912	0.433949	0.454387	0.611548	0.856739	1	1	1	1	1	1	1	1	1	1	1	1	1	1	1	1	1	1	1	1	1	1	1	1	1	1	0.846578	0.628504	0.503368	0.565325	0.772064	0.970367	1	1	1	1	1	0.997259	0.937113	0.862248	0.780835	0.703964	0.639731	0.590607	0.555312	0.531903	0.517606	0.5096	0.505529	0.503735	0.503257	0.503667	0.504769	0.65124	0.609309	0.488963	0.359145	0.374729	0.53484	0.781262	1	1	1	1	1	1	1	1	1	1	1	1	1	1	1	1	1	1	1	1	1	1	1	1	1	0.976419	0.800931	0.592454	0.500001	0.59284	0.807615	0.990568	1	1	1	1	0.942149	0.854502	0.751869	0.65765	0.583263	0.533403	0.507093	0.500005	0.505807	0.518617	0.533861	0.547825	0.55849	0.564805	0.566664	0.564542	0.559376	0.704078	0.683726	0.585866	0.466158	0.388028	0.49362	0.686043	0.894587	1	1	1	1	1	1	1	1	1	1	1	1	1	1	1	1	1	1	1	1	1	1	1	1	0.933876	0.739632	0.552753	0.505432	0.633941	0.850002	1	1	1	1	0.942149	0.772182	0.658499	0.569423	0.516412	0.5	0.513666	0.547582	0.5918	0.637933	0.679804	0.714475	0.741011	0.759066	0.769076	0.771797	0.768154	0.758893	0.883855	0.887626	0.806126	0.687192	0.569118	0.496314	0.587136	0.736314	0.912859	0.998383	1	1	1	1	1	1	1	1	1	1	1	1	1	1	1	1	1	1	1	1	1	1	0.871507	0.666938	0.518212	0.527256	0.691665	0.899098	1	1	0.977617	0.889173	0.772182	0.592965	0.520829	0.500177	0.52526	0.582194	0.655077	0.729928	0.798161	0.854078	0.89368	0.922068	0.941786	0.954438	0.961112	0.962865	0.960134	0.952726	1	1	1	0.927067	0.787277	0.62578	0.511169	0.595914	0.744267	0.921068	0.992379	1	1	1	1	1	1	1	1	1	1	1	1	1	1	1	1	1	1	1	1	0.952236	0.781896	0.591101	0.500315	0.572591	0.765527	0.951278	1	0.951317	0.8417	0.708455	0.592965	0.502367	0.516016	0.580807	0.674033	0.772855	0.860692	0.926224	0.973406	1	1	1	1	1	1	1	1	1	1	1	1	1	0.970007	0.790339	0.612168	0.518929	0.60223	0.751369	0.923374	0.987682	1	1	1	1	1	1	1	1	1	1	1	1	1	1	1	1	1	1	0.989578	0.864756	0.67631	0.52854	0.512762	0.645438	0.90189	0.995935	0.974119	0.809116	0.665768	0.553918	0.502367	0.543169	0.640348	0.758949	0.868642	0.948912	0.997559	1	1	1	1	1	1	1	1	1	1	1	1	1	1	1	1	0.956662	0.774752	0.602196	0.525395	0.606869	0.753179	0.923466	0.98564	1	1	1	1	1	1	1	1	1	1	1	1	1	1	1	1	1	0.910737	0.742546	0.575424	0.500087	0.565335	0.804199	0.944132	0.964154	0.821545	0.64441	0.534466	0.50027	0.543169	0.686817	0.821167	0.93039	0.995326	1	1	1	1	1	1	1	1	1	1	1	1	1	1	1	1	1	1	1	0.946217	0.764954	0.593279	0.527436	0.607048	0.753635	0.914813	0.986861	1	1	1	1	1	1	1	1	1	1	1	1	1	1	1	0.925195	0.77731	0.613398	0.50981	0.524674	0.70898	0.881461	0.920232	0.867049	0.643613	0.528585	0.50252	0.565773	0.686817	0.857335	0.96231	1	1	1	1	1	1	1	1	1	1	1	1	1	1	1	1	1	1	1	1	1	1	0.938164	0.759237	0.590338	0.534052	0.604944	0.74173	0.904967	0.991737	1	1	1	1	1	1	1	1	1	1	1	1	0.990378	0.911507	0.777714	0.627556	0.520386	0.50923	0.620506	0.831599	0.893766	0.877692	0.710208	0.534199	0.502447	0.574365	0.711592	0.857335	0.976114	1	1	1	1	1	1	1	1	1	1	1	1	1	1	1	1	1	1	1	1	1	1	1	1	0.934589	0.764471	0.602693	0.524905	0.590204	0.728761	0.890382	0.999019	1	1	1	1	1	1	1	1	1	1	0.954867	0.867167	0.744066	0.614052	0.520501	0.50564	0.587794	0.806459	0.903487	0.893022	0.775063	0.554084	0.50024	0.56546	0.71134	0.869147	0.976114	1	1	1	1	1	1	1	1	1	1	1	1	1	1	1	1	1	1	1	1	1	1	1	1	1	1	0.942661	0.77426	0.611493	0.516582	0.578802	0.709596	0.868765	1	0.999999	1	1	1	1	1	0.98668	0.944099	0.879535	0.787619	0.679674	0.576926	0.510109	0.509144	0.587919	0.77221	0.926794	0.919672	0.829329	0.617043	0.50301	0.541508	0.684851	0.856405	0.975978	1	1	1	1	1	1	1	1	1	1	1	1	1	1	1	1	1	1	1	1	1	1	1	1	1	1	1	1	0.958629	0.793968	0.632757	0.511564	0.570319	0.688696	0.839539	0.969802	1	1	1	0.91293	0.877061	0.825082	0.756439	0.677295	0.596538	0.530624	0.500198	0.52436	0.609869	0.743458	0.928847	0.971063	0.904152	0.6887	0.525298	0.512857	0.633669	0.815847	0.96069	1	1	1	1	1	1	1	1	1	1	1	1	1	1	1	1	1	1	1	1	1	1	1	1	1	1	1	1	1	1	0.978467	0.81655	0.651083	0.515947	0.561963	0.655987	0.753595	0.83214	0.883814	0.892331	0.787954	0.664273	0.614817	0.564843	0.523183	0.500909	0.51112	0.5635	0.659022	0.783256	0.907583	1	1	0.77123	0.584776	0.500218	0.567498	0.743163	0.921325	1	1	1	1	1	1	1	1	1	1	1	1	1	1	1	1	1	1	1	1	1	1	1	1	1	1	1	1	1	1	1	1	1	0.842987	0.672001	0.534784	0.506672	0.523889	0.58022	0.643411	0.686075	0.655877	0.514334	0.50197	0.501941	0.521158	0.565922	0.639699	0.738328	0.849106	0.943908	1	1	0.992552	0.832725	0.697104	0.667247	0.827573	0.995934	1	1	1	1	1	1	1	1	1	1	1	1	1	1	1	1	1	1	1	1	1	1	1	1	1	1	1	1	1	1	1	1	1	1	1	0.874213	0.676762	0.483133	0.374609	0.405194	0.492591	0.591534	0.639582	0.535314	0.567319	0.613824	0.67615	0.754541	0.842738	0.924651	0.991292	1	1	0.969124	0.846577	0.698171	0.637439	0.726236	0.926327	1	1	1	1	1	1	1	1	1	1	1	1	1	1	1	1	1	1	1	1	1	1	1	1	1	1	1	1	1	1	1	1	1	1	1	1	1	0.835106	0.591118	0.40678	0.354591	0.479265	0.64342	0.765754	0.766863	0.767163	0.826266	0.884896	0.94442	0.995381	1	1	0.986292	1	0.857448	0.650023	0.510766	0.505952	0.663465	0.912797	1	1	1	1	1	1	1	1	1	1	1	1	1	1	1	1	1	1	1	1	1	1	1	1	1	1	1	1	1	1	1	1	1	1	1	1	1	0.963171	0.727362	0.530909	0.480251	0.569931	0.764043	0.928718	0.976664	0.959392	0.994617	1	1	1	1	0.933857	0.878677	0.878016	0.719319	0.526845	0.382922	0.386328	0.564859	0.83223	1	1	1	1	1	1	1	1	1	1	1	1	1	1	1	1	1	1	1	1	1	1	1	1	1	1	1	1	1	1	1	1	1	1	1	1	1	1	0.833099	0.646349	0.608715	0.726041	0.892235	1	1	1	1	1	1	0.980046	0.886781	0.764182	0.690416	0.74759	0.646131	0.511383	0.400679	0.385248	0.484308	0.708751	0.939813	1	1	1	1	1	1	1	1	1	1	1	1	1	1	