# vtk DataFile Version 2.0
output1.vtk
ASCII 
DATASET STRUCTURED_GRID
DIMENSIONS 120 100 1
POINTS 12000 float
0 0 1
0 1 1
0 2 1
0 3 1
0 4 1
0 5 1
0 6 1
0 7 1
0 8 1
0 9 1
0 10 1
0 11 1
0 12 1
0 13 1
0 14 1
0 15 1
0 16 1
0 17 1
0 18 1
0 19 1
0 20 1
0 21 1
0 22 1
0 23 1
0 24 1
0 25 1
0 26 1
0 27 1
0 28 1
0 29 1
0 30 1
0 31 1
0 32 1
0 33 1
0 34 1
0 35 1
0 36 1
0 37 1
0 38 1
0 39 1
0 40 1
0 41 1
0 42 1
0 43 1
0 44 1
0 45 1
0 46 1
0 47 1
0 48 1
0 49 1
0 50 1
0 51 1
0 52 1
0 53 1
0 54 1
0 55 1
0 56 1
0 57 1
0 58 1
0 59 1
0 60 1
0 61 1
0 62 1
0 63 1
0 64 1
0 65 1
0 66 1
0 67 1
0 68 1
0 69 1
0 70 1
0 71 1
0 72 1
0 73 1
0 74 1
0 75 1
0 76 1
0 77 1
0 78 1
0 79 1
0 80 1
0 81 1
0 82 1
0 83 1
0 84 1
0 85 1
0 86 1
0 87 1
0 88 1
0 89 1
0 90 1
0 91 1
0 92 1
0 93 1
0 94 1
0 95 1
0 96 1
0 97 1
0 98 1
0 99 1
0 100 1
0 101 1
0 102 1
0 103 1
0 104 1
0 105 1
0 106 1
0 107 1
0 108 1
0 109 1
0 110 1
0 111 1
0 112 1
0 113 1
0 114 1
0 115 1
0 116 1
0 117 1
0 118 1
0 119 1
1 0 1
1 1 1
1 2 1
1 3 1
1 4 1
1 5 1
1 6 1
1 7 1
1 8 1
1 9 1
1 10 1
1 11 1
1 12 1
1 13 1
1 14 1
1 15 1
1 16 1
1 17 1
1 18 1
1 19 1
1 20 1
1 21 1
1 22 1
1 23 1
1 24 1
1 25 1
1 26 1
1 27 1
1 28 1
1 29 1
1 30 1
1 31 1
1 32 1
1 33 1
1 34 1
1 35 1
1 36 1
1 37 1
1 38 1
1 39 1
1 40 1
1 41 1
1 42 1
1 43 1
1 44 1
1 45 1
1 46 1
1 47 1
1 48 1
1 49 1
1 50 1
1 51 1
1 52 1
1 53 1
1 54 1
1 55 1
1 56 1
1 57 1
1 58 1
1 59 1
1 60 1
1 61 1
1 62 1
1 63 1
1 64 1
1 65 1
1 66 1
1 67 1
1 68 1
1 69 1
1 70 1
1 71 1
1 72 1
1 73 1
1 74 1
1 75 1
1 76 1
1 77 1
1 78 1
1 79 1
1 80 1
1 81 1
1 82 1
1 83 1
1 84 1
1 85 1
1 86 1
1 87 1
1 88 1
1 89 1
1 90 1
1 91 1
1 92 1
1 93 1
1 94 1
1 95 1
1 96 1
1 97 1
1 98 1
1 99 1
1 100 1
1 101 1
1 102 1
1 103 1
1 104 1
1 105 1
1 106 1
1 107 1
1 108 1
1 109 1
1 110 1
1 111 1
1 112 1
1 113 1
1 114 1
1 115 1
1 116 1
1 117 1
1 118 1
1 119 1
2 0 1
2 1 1
2 2 1
2 3 1
2 4 1
2 5 1
2 6 1
2 7 1
2 8 1
2 9 1
2 10 1
2 11 1
2 12 1
2 13 1
2 14 1
2 15 1
2 16 1
2 17 1
2 18 1
2 19 1
2 20 1
2 21 1
2 22 1
2 23 1
2 24 1
2 25 1
2 26 1
2 27 1
2 28 1
2 29 1
2 30 1
2 31 1
2 32 1
2 33 1
2 34 1
2 35 1
2 36 1
2 37 1
2 38 1
2 39 1
2 40 1
2 41 1
2 42 1
2 43 1
2 44 1
2 45 1
2 46 1
2 47 1
2 48 1
2 49 1
2 50 1
2 51 1
2 52 1
2 53 1
2 54 1
2 55 1
2 56 1
2 57 1
2 58 1
2 59 1
2 60 1
2 61 1
2 62 1
2 63 1
2 64 1
2 65 1
2 66 1
2 67 1
2 68 1
2 69 1
2 70 1
2 71 1
2 72 1
2 73 1
2 74 1
2 75 1
2 76 1
2 77 1
2 78 1
2 79 1
2 80 1
2 81 1
2 82 1
2 83 1
2 84 1
2 85 1
2 86 1
2 87 1
2 88 1
2 89 1
2 90 1
2 91 1
2 92 1
2 93 1
2 94 1
2 95 1
2 96 1
2 97 1
2 98 1
2 99 1
2 100 1
2 101 1
2 102 1
2 103 1
2 104 1
2 105 1
2 106 1
2 107 1
2 108 1
2 109 1
2 110 1
2 111 1
2 112 1
2 113 1
2 114 1
2 115 1
2 116 1
2 117 1
2 118 1
2 119 1
3 0 1
3 1 1
3 2 1
3 3 1
3 4 1
3 5 1
3 6 1
3 7 1
3 8 1
3 9 1
3 10 1
3 11 1
3 12 1
3 13 1
3 14 1
3 15 1
3 16 1
3 17 1
3 18 1
3 19 1
3 20 1
3 21 1
3 22 1
3 23 1
3 24 1
3 25 1
3 26 1
3 27 1
3 28 1
3 29 1
3 30 1
3 31 1
3 32 1
3 33 1
3 34 1
3 35 1
3 36 1
3 37 1
3 38 1
3 39 1
3 40 1
3 41 1
3 42 1
3 43 1
3 44 1
3 45 1
3 46 1
3 47 1
3 48 1
3 49 1
3 50 1
3 51 1
3 52 1
3 53 1
3 54 1
3 55 1
3 56 1
3 57 1
3 58 1
3 59 1
3 60 1
3 61 1
3 62 1
3 63 1
3 64 1
3 65 1
3 66 1
3 67 1
3 68 1
3 69 1
3 70 1
3 71 1
3 72 1
3 73 1
3 74 1
3 75 1
3 76 1
3 77 1
3 78 1
3 79 1
3 80 1
3 81 1
3 82 1
3 83 1
3 84 1
3 85 1
3 86 1
3 87 1
3 88 1
3 89 1
3 90 1
3 91 1
3 92 1
3 93 1
3 94 1
3 95 1
3 96 1
3 97 1
3 98 1
3 99 1
3 100 1
3 101 1
3 102 1
3 103 1
3 104 1
3 105 1
3 106 1
3 107 1
3 108 1
3 109 1
3 110 1
3 111 1
3 112 1
3 113 1
3 114 1
3 115 1
3 116 1
3 117 1
3 118 1
3 119 1
4 0 1
4 1 1
4 2 1
4 3 1
4 4 1
4 5 1
4 6 1
4 7 1
4 8 1
4 9 1
4 10 1
4 11 1
4 12 1
4 13 1
4 14 1
4 15 1
4 16 1
4 17 1
4 18 1
4 19 1
4 20 1
4 21 1
4 22 1
4 23 1
4 24 1
4 25 1
4 26 1
4 27 1
4 28 1
4 29 1
4 30 1
4 31 1
4 32 1
4 33 1
4 34 1
4 35 1
4 36 1
4 37 1
4 38 1
4 39 1
4 40 1
4 41 1
4 42 1
4 43 1
4 44 1
4 45 1
4 46 1
4 47 1
4 48 1
4 49 1
4 50 1
4 51 1
4 52 1
4 53 1
4 54 1
4 55 1
4 56 1
4 57 1
4 58 1
4 59 1
4 60 1
4 61 1
4 62 1
4 63 1
4 64 1
4 65 1
4 66 1
4 67 1
4 68 1
4 69 1
4 70 1
4 71 1
4 72 1
4 73 1
4 74 1
4 75 1
4 76 1
4 77 1
4 78 1
4 79 1
4 80 1
4 81 1
4 82 1
4 83 1
4 84 1
4 85 1
4 86 1
4 87 1
4 88 1
4 89 1
4 90 1
4 91 1
4 92 1
4 93 1
4 94 1
4 95 1
4 96 1
4 97 1
4 98 1
4 99 1
4 100 1
4 101 1
4 102 1
4 103 1
4 104 1
4 105 1
4 106 1
4 107 1
4 108 1
4 109 1
4 110 1
4 111 1
4 112 1
4 113 1
4 114 1
4 115 1
4 116 1
4 117 1
4 118 1
4 119 1
5 0 1
5 1 1
5 2 1
5 3 1
5 4 1
5 5 1
5 6 1
5 7 1
5 8 1
5 9 1
5 10 1
5 11 1
5 12 1
5 13 1
5 14 1
5 15 1
5 16 1
5 17 1
5 18 1
5 19 1
5 20 1
5 21 1
5 22 1
5 23 1
5 24 1
5 25 1
5 26 1
5 27 1
5 28 1
5 29 1
5 30 1
5 31 1
5 32 1
5 33 1
5 34 1
5 35 1
5 36 1
5 37 1
5 38 1
5 39 1
5 40 1
5 41 1
5 42 1
5 43 1
5 44 1
5 45 1
5 46 1
5 47 1
5 48 1
5 49 1
5 50 1
5 51 1
5 52 1
5 53 1
5 54 1
5 55 1
5 56 1
5 57 1
5 58 1
5 59 1
5 60 1
5 61 1
5 62 1
5 63 1
5 64 1
5 65 1
5 66 1
5 67 1
5 68 1
5 69 1
5 70 1
5 71 1
5 72 1
5 73 1
5 74 1
5 75 1
5 76 1
5 77 1
5 78 1
5 79 1
5 80 1
5 81 1
5 82 1
5 83 1
5 84 1
5 85 1
5 86 1
5 87 1
5 88 1
5 89 1
5 90 1
5 91 1
5 92 1
5 93 1
5 94 1
5 95 1
5 96 1
5 97 1
5 98 1
5 99 1
5 100 1
5 101 1
5 102 1
5 103 1
5 104 1
5 105 1
5 106 1
5 107 1
5 108 1
5 109 1
5 110 1
5 111 1
5 112 1
5 113 1
5 114 1
5 115 1
5 116 1
5 117 1
5 118 1
5 119 1
6 0 1
6 1 1
6 2 1
6 3 1
6 4 1
6 5 1
6 6 1
6 7 1
6 8 1
6 9 1
6 10 1
6 11 1
6 12 1
6 13 1
6 14 1
6 15 1
6 16 1
6 17 1
6 18 1
6 19 1
6 20 1
6 21 1
6 22 1
6 23 1
6 24 1
6 25 1
6 26 1
6 27 1
6 28 1
6 29 1
6 30 1
6 31 1
6 32 1
6 33 1
6 34 1
6 35 1
6 36 1
6 37 1
6 38 1
6 39 1
6 40 1
6 41 1
6 42 1
6 43 1
6 44 1
6 45 1
6 46 1
6 47 1
6 48 1
6 49 1
6 50 1
6 51 1
6 52 1
6 53 1
6 54 1
6 55 1
6 56 1
6 57 1
6 58 1
6 59 1
6 60 1
6 61 1
6 62 1
6 63 1
6 64 1
6 65 1
6 66 1
6 67 1
6 68 1
6 69 1
6 70 1
6 71 1
6 72 1
6 73 1
6 74 1
6 75 1
6 76 1
6 77 1
6 78 1
6 79 1
6 80 1
6 81 1
6 82 1
6 83 1
6 84 1
6 85 1
6 86 1
6 87 1
6 88 1
6 89 1
6 90 1
6 91 1
6 92 1
6 93 1
6 94 1
6 95 1
6 96 1
6 97 1
6 98 1
6 99 1
6 100 1
6 101 1
6 102 1
6 103 1
6 104 1
6 105 1
6 106 1
6 107 1
6 108 1
6 109 1
6 110 1
6 111 1
6 112 1
6 113 1
6 114 1
6 115 1
6 116 1
6 117 1
6 118 1
6 119 1
7 0 1
7 1 1
7 2 1
7 3 1
7 4 1
7 5 1
7 6 1
7 7 1
7 8 1
7 9 1
7 10 1
7 11 1
7 12 1
7 13 1
7 14 1
7 15 1
7 16 1
7 17 1
7 18 1
7 19 1
7 20 1
7 21 1
7 22 1
7 23 1
7 24 1
7 25 1
7 26 1
7 27 1
7 28 1
7 29 1
7 30 1
7 31 1
7 32 1
7 33 1
7 34 1
7 35 1
7 36 1
7 37 1
7 38 1
7 39 1
7 40 1
7 41 1
7 42 1
7 43 1
7 44 1
7 45 1
7 46 1
7 47 1
7 48 1
7 49 1
7 50 1
7 51 1
7 52 1
7 53 1
7 54 1
7 55 1
7 56 1
7 57 1
7 58 1
7 59 1
7 60 1
7 61 1
7 62 1
7 63 1
7 64 1
7 65 1
7 66 1
7 67 1
7 68 1
7 69 1
7 70 1
7 71 1
7 72 1
7 73 1
7 74 1
7 75 1
7 76 1
7 77 1
7 78 1
7 79 1
7 80 1
7 81 1
7 82 1
7 83 1
7 84 1
7 85 1
7 86 1
7 87 1
7 88 1
7 89 1
7 90 1
7 91 1
7 92 1
7 93 1
7 94 1
7 95 1
7 96 1
7 97 1
7 98 1
7 99 1
7 100 1
7 101 1
7 102 1
7 103 1
7 104 1
7 105 1
7 106 1
7 107 1
7 108 1
7 109 1
7 110 1
7 111 1
7 112 1
7 113 1
7 114 1
7 115 1
7 116 1
7 117 1
7 118 1
7 119 1
8 0 1
8 1 1
8 2 1
8 3 1
8 4 1
8 5 1
8 6 1
8 7 1
8 8 1
8 9 1
8 10 1
8 11 1
8 12 1
8 13 1
8 14 1
8 15 1
8 16 1
8 17 1
8 18 1
8 19 1
8 20 1
8 21 1
8 22 1
8 23 1
8 24 1
8 25 1
8 26 1
8 27 1
8 28 1
8 29 1
8 30 1
8 31 1
8 32 1
8 33 1
8 34 1
8 35 1
8 36 1
8 37 1
8 38 1
8 39 1
8 40 1
8 41 1
8 42 1
8 43 1
8 44 1
8 45 1
8 46 1
8 47 1
8 48 1
8 49 1
8 50 1
8 51 1
8 52 1
8 53 1
8 54 1
8 55 1
8 56 1
8 57 1
8 58 1
8 59 1
8 60 1
8 61 1
8 62 1
8 63 1
8 64 1
8 65 1
8 66 1
8 67 1
8 68 1
8 69 1
8 70 1
8 71 1
8 72 1
8 73 1
8 74 1
8 75 1
8 76 1
8 77 1
8 78 1
8 79 1
8 80 1
8 81 1
8 82 1
8 83 1
8 84 1
8 85 1
8 86 1
8 87 1
8 88 1
8 89 1
8 90 1
8 91 1
8 92 1
8 93 1
8 94 1
8 95 1
8 96 1
8 97 1
8 98 1
8 99 1
8 100 1
8 101 1
8 102 1
8 103 1
8 104 1
8 105 1
8 106 1
8 107 1
8 108 1
8 109 1
8 110 1
8 111 1
8 112 1
8 113 1
8 114 1
8 115 1
8 116 1
8 117 1
8 118 1
8 119 1
9 0 1
9 1 1
9 2 1
9 3 1
9 4 1
9 5 1
9 6 1
9 7 1
9 8 1
9 9 1
9 10 1
9 11 1
9 12 1
9 13 1
9 14 1
9 15 1
9 16 1
9 17 1
9 18 1
9 19 1
9 20 1
9 21 1
9 22 1
9 23 1
9 24 1
9 25 1
9 26 1
9 27 1
9 28 1
9 29 1
9 30 1
9 31 1
9 32 1
9 33 1
9 34 1
9 35 1
9 36 1
9 37 1
9 38 1
9 39 1
9 40 1
9 41 1
9 42 1
9 43 1
9 44 1
9 45 1
9 46 1
9 47 1
9 48 1
9 49 1
9 50 1
9 51 1
9 52 1
9 53 1
9 54 1
9 55 1
9 56 1
9 57 1
9 58 1
9 59 1
9 60 1
9 61 1
9 62 1
9 63 1
9 64 1
9 65 1
9 66 1
9 67 1
9 68 1
9 69 1
9 70 1
9 71 1
9 72 1
9 73 1
9 74 1
9 75 1
9 76 1
9 77 1
9 78 1
9 79 1
9 80 1
9 81 1
9 82 1
9 83 1
9 84 1
9 85 1
9 86 1
9 87 1
9 88 1
9 89 1
9 90 1
9 91 1
9 92 1
9 93 1
9 94 1
9 95 1
9 96 1
9 97 1
9 98 1
9 99 1
9 100 1
9 101 1
9 102 1
9 103 1
9 104 1
9 105 1
9 106 1
9 107 1
9 108 1
9 109 1
9 110 1
9 111 1
9 112 1
9 113 1
9 114 1
9 115 1
9 116 1
9 117 1
9 118 1
9 119 1
10 0 1
10 1 1
10 2 1
10 3 1
10 4 1
10 5 1
10 6 1
10 7 1
10 8 1
10 9 1
10 10 1
10 11 1
10 12 1
10 13 1
10 14 1
10 15 1
10 16 1
10 17 1
10 18 1
10 19 1
10 20 1
10 21 1
10 22 1
10 23 1
10 24 1
10 25 1
10 26 1
10 27 1
10 28 1
10 29 1
10 30 1
10 31 1
10 32 1
10 33 1
10 34 1
10 35 1
10 36 1
10 37 1
10 38 1
10 39 1
10 40 1
10 41 1
10 42 1
10 43 1
10 44 1
10 45 1
10 46 1
10 47 1
10 48 1
10 49 1
10 50 1
10 51 1
10 52 1
10 53 1
10 54 1
10 55 1
10 56 1
10 57 1
10 58 1
10 59 1
10 60 1
10 61 1
10 62 1
10 63 1
10 64 1
10 65 1
10 66 1
10 67 1
10 68 1
10 69 1
10 70 1
10 71 1
10 72 1
10 73 1
10 74 1
10 75 1
10 76 1
10 77 1
10 78 1
10 79 1
10 80 1
10 81 1
10 82 1
10 83 1
10 84 1
10 85 1
10 86 1
10 87 1
10 88 1
10 89 1
10 90 1
10 91 1
10 92 1
10 93 1
10 94 1
10 95 1
10 96 1
10 97 1
10 98 1
10 99 1
10 100 1
10 101 1
10 102 1
10 103 1
10 104 1
10 105 1
10 106 1
10 107 1
10 108 1
10 109 1
10 110 1
10 111 1
10 112 1
10 113 1
10 114 1
10 115 1
10 116 1
10 117 1
10 118 1
10 119 1
11 0 1
11 1 1
11 2 1
11 3 1
11 4 1
11 5 1
11 6 1
11 7 1
11 8 1
11 9 1
11 10 1
11 11 1
11 12 1
11 13 1
11 14 1
11 15 1
11 16 1
11 17 1
11 18 1
11 19 1
11 20 1
11 21 1
11 22 1
11 23 1
11 24 1
11 25 1
11 26 1
11 27 1
11 28 1
11 29 1
11 30 1
11 31 1
11 32 1
11 33 1
11 34 1
11 35 1
11 36 1
11 37 1
11 38 1
11 39 1
11 40 1
11 41 1
11 42 1
11 43 1
11 44 1
11 45 1
11 46 1
11 47 1
11 48 1
11 49 1
11 50 1
11 51 1
11 52 1
[...]
POINT_DATA 12000
SCALARS CON float 1
LOOKUP_TABLE default
1	1	0.980859	0.73166	0.544639	0.560836	0.797477	1	1	1	1	1	1	1	1	1	0.998935	1	1	0.943705	0.684293	0.51605	0.423241	0.418847	0.512979	0.58466	0.727445	0.71122	0.592489	0.595269	0.602955	0.616569	0.637452	0.667053	0.706426	0.755366	0.811134	0.867735	0.924914	0.97621	1	1	1	1	1	1	1	0.999201	0.888817	0.725241	0.578373	0.504197	0.521511	0.612613	0.738403	0.858425	0.945989	0.996816	1	1	1	1	1	1	1	1	1	0.996007	0.943847	0.853818	0.731126	0.604199	0.516234	0.508207	0.59629	0.754773	0.916749	1	1	1	1	1	1	1	1	1	1	1	1	1	1	1	1	1	1	1	1	1	0.935884	0.741055	0.556004	0.503068	0.611879	0.808032	0.967775	1	1	1	1	1	1	1	1	1	1	1	1	1	1	1	1	1	1	0.880673	0.704485	0.675986	0.79609	0.950047	1	1	1	1	0.99259	0.993628	0.998252	1	0.958064	0.886064	0.802248	0.690821	0.551593	0.447917	0.357367	0.46471	0.623524	0.735465	0.785744	0.833997	0.855742	0.810361	0.822035	0.836645	0.857075	0.883999	0.916834	0.953639	0.987455	1	1	1	1	1	1	1	1	1	1	1	0.990319	0.87996	0.724136	0.585892	0.509516	0.508779	0.571057	0.668273	0.771162	0.85947	0.921772	0.964154	0.990518	1	1	1	0.990374	0.963825	0.921099	0.858079	0.768783	0.664851	0.567386	0.50691	0.512508	0.59629	0.741153	0.898054	1	1	1	1	1	1	1	1	1	1	1	1	1	1	1	1	1	1	1	1	1	1	0.986087	0.825214	0.622532	0.505681	0.542312	0.703193	0.890191	1	1	1	1	1	1	1	1	1	1	1	1	1	1	1	1	1	1	0.938288	0.735506	0.604432	0.637904	0.776386	0.852197	0.979357	0.967692	0.992473	0.943375	0.895529	0.8385	0.770932	0.702642	0.643982	0.593991	0.538816	0.443266	0.37279	0.372473	0.46866	0.576792	0.725058	0.787501	0.874913	0.951125	1	0.999634	1	1	1	1	1	1	1	1	1	1	1	1	1	1	1	1	1	1	0.989725	0.887747	0.744876	0.613511	0.527613	0.499917	0.524242	0.582249	0.65376	0.722445	0.779604	0.821325	0.846051	0.853595	0.845956	0.821089	0.779171	0.721729	0.652685	0.580911	0.523081	0.499925	0.530243	0.619997	0.754773	0.898054	0.998625	1	1	1	1	1	1	1	1	1	1	1	1	1	1	1	1	1	1	1	1	1	1	1	0.90753	0.715587	0.548409	0.502723	0.597051	0.771991	0.932716	1	1	1	1	1	1	1	1	1	1	1	1	1	1	1	1	1	0.923772	0.677741	0.494258	0.468207	0.532059	0.648837	0.802225	0.784011	0.740218	0.699943	0.652354	0.611576	0.570183	0.528854	0.504414	0.530537	0.579954	0.585281	0.553943	0.534925	0.552451	0.629356	0.685089	0.72963	0.823295	0.926162	1	1	1	1	1	1	1	1	1	1	1	1	1	1	1	1	1	1	1	1	1	0.999503	0.911567	0.789955	0.66776	0.571923	0.516311	0.499935	0.513058	0.542338	0.57624	0.605779	0.625392	0.632166	0.625315	0.605616	0.575986	0.542013	0.512765	0.499932	0.517072	0.574096	0.671871	0.79574	0.916749	1	1	1	1	1	1	1	1	1	1	1	1	1	1	1	1	1	1	1	1	1	1	1	1	1	0.976831	0.824895	0.635386	0.514004	0.519624	0.639679	0.807822	0.945032	1	1	1	1	1	1	1	1	1	1	1	1	1	1	1	0.974216	0.801042	0.561342	0.38475	0.343282	0.408866	0.506967	0.647535	0.577902	0.567105	0.542705	0.51896	0.525757	0.569228	0.625444	0.677388	0.731791	0.795308	0.829974	0.816109	0.774492	0.719857	0.661519	0.593719	0.513251	0.574994	0.678541	0.802025	0.917716	0.999472	1	1	1	1	1	1	1	1	1	1	1	1	1	1	1	1	1	1	1	1	0.949333	0.8593	0.752279	0.655833	0.582222	0.53475	0.509887	0.500904	0.500404	0.502435	0.50361	0.502424	0.500394	0.50093	0.510023	0.535136	0.583072	0.657385	0.754589	0.862351	0.952168	1	1	1	1	1	1	1	1	1	1	1	1	1	1	1	1	1	1	1	1	1	1	1	1	1	1	1	0.926843	0.756612	0.587481	0.502882	0.534347	0.656599	0.810309	0.936235	1	1	1	1	1	1	1	1	1	1	1	1	1	0.960603	0.925959	0.693434	0.504297	0.38242	0.366619	0.436443	0.529922	0.663689	0.557159	0.600854	0.655799	0.699954	0.742732	0.803665	0.865267	0.921021	0.972227	1	1	1	0.991664	0.90332	0.715752	0.593498	0.523678	0.500151	0.533568	0.621663	0.747237	0.880553	0.977809	1	1	1	1	1	1	1	1	1	1	1	1	1	1	1	1	1	1	1	1	0.998162	0.935821	0.859912	0.77982	0.707662	0.650767	0.610435	0.584552	0.570305	0.565741	0.57035	0.58466	0.610645	0.651145	0.708294	0.780758	0.861068	0.937096	0.999213	1	1	1	1	1	1	1	1	1	1	1	1	1	1	1	1	1	1	1	1	1	1	1	1	1	1	1	1	1	0.886775	0.714976	0.566041	0.500937	0.535508	0.644059	0.779937	0.899461	0.975759	1	1	1	1	1	1	1	1	1	1	0.990957	0.931732	0.783094	0.65124	0.504255	0.478741	0.5257	0.618005	0.755982	0.86546	0.823416	0.866742	0.914042	0.953401	0.9944	1	1	1	1	1	1	1	1	0.97505	0.881997	0.775787	0.661389	0.563093	0.506429	0.510471	0.581332	0.705955	0.849617	0.962326	1	1	1	1	1	1	1	1	1	1	1	1	1	1	1	1	1	1	1	1	1	1	0.96212	0.91269	0.866148	0.828474	0.80015	0.782221	0.776085	0.782278	0.800272	0.828674	0.866464	0.913126	0.962488	1	1	1	1	1	1	1	1	1	1	1	1	1	1	1	1	1	1	1	1	1	1	1	1	1	1	1	1	1	1	1	1	0.98321	0.862386	0.699935	0.564673	0.502325	0.522451	0.605168	0.717004	0.826438	0.912916	0.971824	1	1	1	1	1	1	0.994759	0.990957	0.834403	0.704754	0.602195	0.553787	0.629822	0.679189	0.757566	0.854549	0.967848	1	1	1	1	1	1	1	1	1	1	1	1	1	1	1	1	0.944044	0.849047	0.728366	0.608991	0.523702	0.501649	0.557393	0.680711	0.832894	0.957054	1	1	1	1	1	1	1	1	1	1	1	1	1	1	1	1	1	1	1	1	1	1	1	1	1	0.990407	0.980693	0.976894	0.980725	0.99046	1	1	1	1	1	1	1	1	1	1	1	1	1	1	1	1	1	1	1	1	1	1	1	1	1	1	1	1	1	1	1	1	1	1	1	1	1	0.974657	0.86058	0.711142	0.58289	0.511176	0.504785	0.551796	0.630626	0.719443	0.802821	0.871431	0.920351	1	1	1	1	0.953316	0.834403	0.635567	0.556924	0.516331	0.599969	0.74076	0.9112	0.992403	1	1	1	1	1	1	1	1	1	1	1	1	1	1	1	1	1	1	1	0.982864	0.905094	0.783971	0.649429	0.541688	0.500006	0.546703	0.672603	0.833597	0.963176	1	1	1	1	1	1	1	1	1	1	1	1	1	1	1	1	1	1	1	1	1	1	1	1	1	1	1	1	1	1	1	1	1	1	1	1	1	1	1	1	1	1	1	1	1	1	1	1	1	1	1	0.983227	0.957173	0.932314	0.913125	0.901307	0.897308	0.901295	0.913101	0.932279	0.957127	0.983174	1	1	1	1	1	0.98107	0.882243	0.74862	0.625799	0.540329	0.502459	0.508112	0.545283	0.600276	0.661604	0.78468	0.891646	0.90887	0.895412	0.842564	0.751206	0.635567	0.522732	0.544175	0.661549	0.803813	0.945292	1	1	1	1	1	1	1	1	1	1	1	1	1	1	1	1	1	1	1	1	1	1	1	0.939998	0.821436	0.676071	0.552431	0.500095	0.547191	0.682291	0.852012	0.979817	1	1	1	1	1	1	1	1	1	1	1	1	1	1	1	1	1	1	1	1	1	1	1	1	1	1	1	1	1	1	1	1	1	1	1	1	1	1	1	1	1	1	1	1	1	1	0.994858	0.948557	0.895136	0.844597	0.797784	0.755984	0.72234	0.698443	0.68435	0.6796	0.684337	0.698414	0.722291	0.755913	0.797684	0.844475	0.894981	0.948385	0.994697	1	1	0.999786	0.920015	0.812011	0.699159	0.604648	0.539799	0.506671	0.500673	0.514718	0.65084	0.672797	0.660864	0.631789	0.600316	0.570187	0.522732	0.619385	0.747357	0.88563	1	1	1	1	1	1	1	1	1	1	1	1	1	1	1	1	1	1	1	1	1	1	1	1	1	1	0.957036	0.839559	0.684656	0.551713	0.499939	0.559319	0.709938	0.884791	1	1	1	1	1	1	1	1	1	1	1	1	1	1	1	1	1	1	1	1	1	1	1	1	1	1	1	1	1	1	1	1	1	1	1	1	1	1	1	1	1	1	1	1	0.975487	0.911412	0.836685	0.756867	0.68567	0.628555	0.585963	0.555977	0.536466	0.524736	0.518769	0.517001	0.518763	0.524723	0.536439	0.555928	0.58588	0.62842	0.685461	0.756564	0.836304	0.911054	0.975012	1	1	0.967555	0.891905	0.800933	0.710014	0.632469	0.573079	0.613447	0.603868	0.540684	0.465634	0.423101	0.431363	0.493632	0.619385	0.822512	0.969656	1	1	1	1	1	1	1	1	1	1	1	1	1	1	1	1	1	1	1	1	1	1	1	1	1	1	1	1	0.962166	0.838411	0.673645	0.539545	0.502316	0.586382	0.755485	0.924813	1	1	1	1	1	1	1	1	1	1	1	1	1	1	1	1	1	1	1	1	1	1	1	1	1	1	1	1	1	1	1	1	1	1	1	1	1	1	1	1	1	0.985023	0.910877	0.815722	0.715986	0.629711	0.564867	0.523885	0.50415	0.500173	0.505855	0.515981	0.526049	0.533209	0.535736	0.533216	0.526064	0.516001	0.505873	0.500177	0.504119	0.523779	0.564638	0.629299	0.715339	0.814815	0.909977	0.984055	1	1	0.969296	0.909146	0.841619	0.768207	0.789581	0.680689	0.530633	0.391428	0.337567	0.444445	0.628104	0.822512	1	1	1	1	1	1	1	1	1	1	1	1	1	1	1	1	1	1	1	1	1	1	1	1	1	1	1	1	1	1	1	0.955338	0.816618	0.64276	0.519769	0.513977	0.633193	0.817265	0.966349	1	1	1	1	1	1	1	1	1	1	1	1	1	1	1	1	1	1	1	1	1	1	1	1	1	1	1	1	1	1	1	1	1	1	1	1	1	1	1	0.942345	0.8426	0.724963	0.620039	0.545186	0.506638	0.501541	0.52189	0.557518	0.599389	0.639989	0.674161	0.699565	0.715068	0.720348	0.715085	0.6996	0.674218	0.640073	0.5995	0.557645	0.522006	0.501585	0.506511	0.544743	0.619216	0.723466	0.84062	0.940587	1	1	1	0.998341	0.982292	0.951334	0.791116	0.580512	0.455792	0.458231	0.600285	0.817408	1	1	1	1	1	1	1	1	1	1	1	1	1	1	1	1	1	1	1	1	1	1	1	1	1	1	1	1	1	1	1	1	1	0.933785	0.770116	0.59533	0.502808	0.614063	0.810661	0.964649	1	1	1	1	1	1	1	1	1	1	1	1	1	1	1	1	1	1	1	1	1	1	1	1	1	1	1	1	1	1	1	1	1	1	1	1	1	0.998839	0.908931	0.782637	0.655284	0.557159	0.506509	0.505036	0.543232	0.606044	0.678355	0.748435	0.809799	0.857768	0.890169	0.911525	0.923691	0.92771	0.923704	0.911554	0.890222	0.857859	0.809955	0.748667	0.678672	0.606433	0.54361	0.505227	0.506209	0.556057	0.652819	0.77911	0.905342	0.995633	1	1	1	1	0.879893	0.701531	0.577964	0.603066	0.768914	0.976475	1	1	1	1	1	1	1	1	1	1	1	1	1	1	1	1	1	1	1	1	1	1	1	1	1	1	1	1	1	1	1	1	1	0.999641	0.929597	0.849425	0.705305	0.635678	0.689071	0.799507	0.895348	0.998349	0.970311	0.987297	1	1	1	1	1	1	1	1	1	1	1	1	1	1	1	1	1	1	1	1	1	1	1	1	1	1	1	1	1	1	1	1	0.989423	0.887132	0.742874	0.609552	0.523407	0.500681	0.537386	0.615405	0.711701	0.805929	0.884297	0.941107	0.981131	1	1	1	1	1	1	1	1	1	0.981225	0.941291	0.884615	0.806488	0.712511	0.616408	0.53829	0.500873	0.52197	0.60554	0.736078	0.878449	0.980726	1	1	0.990613	0.903372	0.730545	0.641032	0.703669	0.882593	1	1	1	1	1	1	1	1	1	1	1	1	1	1	1	1	1	1	1	1	1	1	1	1	1	1	1	1	1	1	1	1	1	1	1	1	0.972606	0.755777	0.584772	0.528476	0.575824	0.705059	0.843721	0.874788	0.799935	0.82499	0.854664	0.890554	0.931493	0.972007	1	1	1	1	1	1	1	1	1	1	1	1	1	1	1	1	1	1	1	1	1	1	1	1	1	1	0.989423	0.878957	0.723326	0.584964	0.508691	0.510662	0.580072	0.688971	0.805225	0.90351	0.970409	1	1	1	1	1	1	1	1	1	1	1	1	1	1	1	0.970778	0.904292	0.806716	0.691161	0.582474	0.512053	0.507008	0.577926	0.709696	0.859476	0.970114	1	0.985718	0.753738	0.56585	0.548754	0.658644	0.868348	1	1	1	1	1	1	1	1	1	1	1	1	1	1	1	1	1	1	1	1	1	1	1	1	1	1	1	1	1	1	1	1	1	1	1	1	1	0.7668	0.528899	0.39707	0.402248	0.548486	0.678705	0.718964	0.586796	0.606933	0.636384	0.67653	0.727845	0.788285	0.852481	0.914838	0.971283	1	1	1	1	1	1	1	1	1	1	1	1	1	1	1	1	1	1	1	1	1	1	0.998839	0.887132	0.723326	0.577305	0.503988	0.52236	0.616178	0.747104	0.872833	0.961748	1	1	1	1	1	1	1	1	1	1	1	1	1	1	1	1	1	1	1	0.962903	0.875571	0.751539	0.621655	0.526342	0.501982	0.56412	0.694824	0.895951	0.940048	0.907022	0.745862	0.522961	0.520257	0.670931	0.876154	1	1	1	1	1	1	1	1	1	1	1	1	1	1	1	1	1	1	1	1	1	1	1	1	1	1	1	1	1	1	1	1	1	1	1	1	1	0.751021	0.497418	0.351466	0.392493	0.52862	0.648601	0.676673	0.500108	0.500519	0.505224	0.518053	0.542971	0.583283	0.640735	0.714699	0.800464	0.885726	0.958597	1	1	1	1	1	1	1	1	1	1	1	1	1	1	1	1	1	1	1	1	0.908931	0.742874	0.584964	0.503988	0.527164	0.636223	0.782923	0.913849	0.992267	1	1	1	1	1	1	1	1	1	1	1	1	1	1	1	1	1	1	1	1	1	0.994046	0.918278	0.791667	0.647865	0.536116	0.50067	0.587167	0.756085	0.788773	0.748609	0.662089	0.579156	0.562399	0.748841	0.937715	1	1	1	1	1	1	1	1	1	1	1	1	1	1	1	1	1	1	1	1	1	1	1	1	1	1	1	1	1	1	1	1	1	1	1	1	0.940292	0.701724	0.493462	0.428354	0.531064	0.676266	0.785934	0.798369	0.600532	0.581202	0.556615	0.531081	0.510068	0.500115	0.508258	0.540793	0.601208	0.687334	0.790506	0.893234	0.973525	1	1	1	1	1	1	1	1	1	1	1	1	1	1	1	1	1	0.942345	0.782637	0.609552	0.508691	0.52236	0.636223	0.794843	0.931842	1	1	1	1	1	1	1	1	1	1	1	1	1	1	1	1	1	1	1	1	1	1	1	1	1	0.939574	0.812238	0.659665	0.539636	0.602774	0.634916	0.620007	0.568217	0.561329	0.597475	0.697411	0.827079	0.984224	1	1	1	1	1	1	1	1	1	1	1	1	1	1	1	1	1	1	1	1	1	1	1	1	1	1	1	1	1	1	1	1	1	1	1	1	0.826647	0.616619	0.502065	0.592397	0.753029	0.908926	1	0.992415	0.884087	0.788695	0.751562	0.704562	0.650449	0.593848	0.543034	0.508508	0.501384	0.531036	0.601032	0.705371	0.825827	0.932656	1	1	1	1	1	1	1	1	1	1	1	1	1	1	1	0.985023	0.8426	0.655284	0.523407	0.510662	0.616178	0.782923	0.931842	1	1	1	1	1	1	1	1	1	1	1	1	1	1	1	1	1	1	1	1	1	1	1	1	1	1	1	0.94722	0.817782	0.660633	0.666732	0.588117	0.494485	0.420221	0.477673	0.608478	0.800753	0.896465	1	1	1	1	1	1	1	1	1	1	1	1	1	1	1	1	1	1	1	1	1	1	1	1	1	1	1	1	1	1	1	1	1	1	1	1	0.914728	0.697337	0.530964	0.561314	0.761789	0.959954	1	1	1	1	0.971108	0.946731	0.911386	0.863247	0.797129	0.718421	0.635536	0.560965	0.511084	0.502627	0.546419	0.641301	0.769644	0.900663	0.994279	1	1	1	1	1	1	1	1	1	1	1	1	1	0.910877	0.724963	0.557159	0.500681	0.580072	0.747104	0.913849	1	1	1	1	1	1	1	1	1	1	1	1	1	1	1	1	1	1	1	1	1	1	1	1	1	1	1	1	1	0.946652	0.844961	0.793467	0.62721	0.456683	0.342046	0.433318	0.632563	0.875667	1	1	1	1	1	1	1	1	1	1	1	1	1	1	1	1	1	1	1	1	1	1	1	1	1	1	1	1	1	1	1	1	1	1	1	1	0.993837	0.78494	0.58586	0.510702	0.679351	0.910967	1	1	1	1	1	1	1	1	1	0.970243	0.914689	0.836674	0.738285	0.634787	0.547901	0.502357	0.517877	0.599899	0.732765	0.879311	0.984458	1	1	1	1	1	1	1	1	1	1	1	0.975487	0.815722	0.620039	0.506509	0.537386	0.688971	0.872833	0.992267	1	1	1	1	1	1	1	1	1	1	1	1	1	1	1	1	1	1	1	1	1	1	1	1	1	1	1	1	1	1	1	0.943306	0.739911	0.509623	0.356541	0.436331	0.666125	0.92873	1	1	1	1	1	1	1	1	1	1	1	1	1	1	1	1	1	1	1	1	1	1	1	1	1	1	1	1	1	1	1	1	1	1	1	1	0.871404	0.660308	0.510396	0.60151	0.820018	1	1	1	1	1	1	1	1	1	1	1	1	0.98429	0.921769	0.824904	0.705764	0.591011	0.514553	0.506092	0.577969	0.714912	0.871594	0.985009	1	1	1	1	1	1	1	1	1	1	0.911412	0.715986	0.545186	0.505036	0.615405	0.805225	0.961748	1	1	1	1	1	1	1	1	1	1	1	1	1	1	1	1	1	1	1	1	1	1	1	1	1	1	1	1	1	1	1	1	1	0.876914	0.627179	0.438812	0.472057	0.701378	0.963943	1	1	1	1	1	1	1	1	1	1	1	1	1	1	1	1	1	1	1	1	1	1	1	1	1	1	1	1	1	1	1	1	1	1	1	0.952666	0.740567	0.558425	0.539645	0.725845	0.964077	1	1	1	1	1	1	1	1	1	1	1	1	1	1	0.971251	0.886459	0.760208	0.6258	0.526546	0.502518	0.571675	0.715885	0.880858	0.995606	1	1	1	1	1	1	1	1	0.994858	0.836685	0.629711	0.506637	0.543232	0.711701	0.90351	1	1	1	1	1	1	1	1	1	1	1	1	1	1	1	1	1	1	1	1	1	1	1	1	1	1	1	1	1	1	1	1	1	1	0.996889	0.762185	0.54616	0.512836	0.720418	0.973693	1	1	1	1	1	1	1	1	1	1	1	1	1	1	1	1	1	1	1	1	1	1	1	1	1	1	1	1	1	1	1	1	1	1	1	0.827471	0.628007	0.501861	0.646648	0.870508	1	1	1	1	1	1	1	1	1	1	1	1	1	1	1	1	0.997852	0.922658	0.792876	0.644319	0.531056	0.502714	0.579456	0.735535	0.903378	1	1	1	1	1	1	1	1	0.948556	0.756866	0.564867	0.501541	0.606045	0.80593	0.970409	1	1	1	1	1	1	1	1	1	1	1	1	1	1	1	1	1	1	1	1	1	1	1	1	1	1	1	1	1	1	1	1	1	1	1	0.866708	0.629055	0.518149	0.698111	0.951836	1	1	1	1	1	1	1	1	1	1	1	1	1	1	1	1	1	1	1	1	1	1	1	1	1	1	1	1	1	1	1	1	1	1	0.912624	0.700244	0.530096	0.578144	0.777721	1	0.999925	1	1	1	1	1	1	1	1	1	1	1	1	1	1	1	1	1	0.937454	0.802916	0.643332	0.525663	0.506807	0.603026	0.774304	0.93634	1	1	1	1	1	1	1	0.895134	0.685668	0.523885	0.521891	0.678356	0.884298	1	1	1	1	1	1	1	1	1	1	1	1	1	1	1	1	1	1	1	1	1	1	1	1	1	1	1	1	1	1	1	1	1	1	1	1	0.92674	0.667908	0.507624	0.661524	0.910855	1	1	1	1	1	1	1	1	1	1	1	1	1	1	1	1	1	1	1	1	1	1	1	1	1	1	1	1	1	1	1	1	1	0.989826	0.7888	0.598545	0.521086	0.69057	0.918393	1	1	1	1	1	1	1	1	1	1	1	1	1	1	1	1	1	1	1	1	0.936762	0.790665	0.623004	0.513195	0.519795	0.646493	0.832223	0.977941	1	1	1	1	1	1	0.844594	0.628552	0.50415	0.55752	0.748438	0.941109	1	1	1	1	1	1	1	1	1	1	1	1	1	1	1	1	1	1	1	1	1	1	1	1	1	1	1	1	1	1	1	1	1	1	1	1	0.974254	0.706943	0.514238	0.6298	0.868998	1	1	1	1	1	1	1	1	1	1	1	1	1	1	1	1	1	1	1	1	1	1	1	1	1	1	1	1	1	1	1	1	1	0.873319	0.665367	0.507934	0.617186	0.826962	1	1	1	1	1	1	1	1	1	1	1	1	1	1	1	1	1	1	1	1	1	1	0.919969	0.755797	0.587	0.501627	0.550381	0.712709	0.89981	1	1	1	1	1	0.98322	0.797774	0.585956	0.500173	0.599395	0.809805	0.981133	1	1	1	1	1	1	1	1	1	1	1	1	1	1	1	1	1	1	1	1	1	1	1	1	1	1	1	1	1	1	1	1	1	1	1	1	1	0.755441	0.540066	0.606117	0.827981	1	1	1	1	1	1	1	1	1	1	1	1	1	1	1	1	1	1	1	1	1	1	1	1	1	1	1	1	1	1	1	1	0.959312	0.747754	0.567139	0.548116	0.736138	0.959045	0.998441	1	1	1	1	1	1	1	1	1	1	1	1	1	1	1	1	1	1	1	1	1	0.996017	0.881517	0.699503	0.543904	0.503815	0.60775	0.799253	0.96427	1	1	1	1	0.957157	0.755964	0.555966	0.505858	0.640003	0.85778	1	1	1	1	1	1	1	1	1	1	1	1	1	1	1	1	1	1	1	1	1	1	1	1	1	1	1	1	1	1	1	1	1	1	1	1	1	1	0.806959	0.5817	0.579553	0.783993	1	1	1	1	1	1	1	1	1	1	1	1	1	1	1	1	1	1	1	1	1	1	1	1	1	1	1	1	1	1	1	1	0.840528	0.630252	0.504215	0.643165	0.863876	1	1	1	1	1	1	1	1	1	1	1	1	1	1	1	1	1	1	1	1	1	1	1	1	0.96786	0.817887	0.627887	0.508757	0.535424	0.696305	0.893632	1	1	1	1	0.932283	0.722302	0.536448	0.515993	0.674192	0.890194	1	1	1	1	1	1	1	1	1	1	1	1	1	1	1	1	1	1	1	1	1	1	1	1	1	1	1	1	1	1	1	1	1	1	1	1	1	1	0.866012	0.623139	0.544789	0.734344	0.986032	1	1	1	1	1	1	1	1	1	1	1	1	1	1	1	1	1	1	1	1	1	1	1	1	1	1	1	1	1	1	0.935286	0.715527	0.541631	0.573513	0.765024	0.984629	0.996848	1	1	1	1	1	1	1	1	1	1	1	1	1	1	1	1	1	1	1	1	1	1	1	1	0.91569	0.729702	0.555237	0.502518	0.608876	0.810086	0.977102	1	1	1	0.913064	0.698372	0.524706	0.52608	0.699634	0.911577	1	1	1	1	1	1	1	1	1	1	1	1	1	1	1	1	1	1	1	1	1	1	1	1	1	1	1	1	1	1	1	1	1	1	1	1	1	0.99767	0.933482	0.689464	0.611894	0.747546	0.953285	0.998448	1	1	1	1	1	1	1	1	1	1	1	1	1	1	1	1	1	1	1	1	1	1	1	1	1	1	1	1	1	0.81495	0.611231	0.52557	0.675524	0.890136	0.997826	1	1	1	1	1	1	1	1	1	1	1	1	1	1	1	1	1	1	1	1	1	1	1	1	1	0.980195	0.828082	0.627533	0.506218	0.545883	0.723816	0.921894	1	1	1	0.901193	0.684216	0.518716	0.53328	0.715214	0.923801	1	1	1	1	1	1	1	1	1	1	1	1	1	1	1	1	1	1	1	1	1	1	1	1	1	1	1	1	1	1	1	1	1	1	1	1	1	1	0.916518	0.657505	0.519197	0.63466	0.826131	1	1	1	1	1	1	1	1	1	1	1	1	1	1	1	1	1	1	1	1	1	1	1	1	1	1	1	1	1	0.908238	0.690436	0.528583	0.600607	0.796934	1	1	1	1	1	1	1	1	1	1	1	1	1	1	1	1	1	1	1	1	1	1	1	1	1	1	1	1	0.907807	0.709587	0.538313	0.510512	0.647948	0.859068	1	1	1	0.897092	0.679345	0.516902	0.535885	0.72065	0.927939	1	1	1	1	1	1	1	1	1	1	1	1	1	1	1	1	1	1	1	1	1	1	1	1	1	1	1	1	1	1	1	1	1	1	1	1	1	0.99736	0.813069	0.569697	0.424997	0.473691	0.681455	0.917757	1	1	1	1	1	1	1	1	1	1	1	1	1	1	1	1	1	1	1	1	1	1	1	1	1	1	1	1	0.782895	0.582322	0.536376	0.699271	0.917315	0.995866	1	1	1	1	1	1	1	1	1	1	1	1	1	1	1	1	1	1	1	1	1	1	1	1	1	1	1	0.965395	0.789254	0.588103	0.49995	0.587845	0.793613	0.974492	1	1	0.900896	0.683848	0.518561	0.533501	0.71569	0.924181	1	1	1	1	1	1	1	1	1	1	1	1	1	1	1	1	1	1	1	1	1	1	1	1	1	1	1	1	1	1	1	1	1	1	1	1	1	0.969251	0.749766	0.491823	0.351387	0.377888	0.549959	0.747433	0.878687	1	0.793346	0.910545	0.970879	0.968406	1	1	1	1	1	1	1	1	1	1	1	1	1	1	1	1	1	1	1	1	0.999712	0.88254	0.655532	0.505047	0.617708	0.8218	1	1	1	1	1	1	1	1	1	1	1	1	1	1	1	1	1	1	1	1	1	1	1	1	1	1	1	1	1	1	0.857912	0.64577	0.508919	0.544841	0.730055	0.932494	1	1	0.91236	0.697474	0.52428	0.526559	0.70078	0.912548	1	1	1	1	1	1	1	1	1	1	1	1	1	1	1	1	1	1	1	1	1	1	1	1	1	1	1	1	1	1	1	1	1	1	1	1	1	0.877929	0.661832	0.461625	0.36849	0.39246	0.485084	0.532545	0.632795	0.793346	0.537376	0.679335	0.769654	0.684535	0.760013	0.848394	0.937423	1	1	1	1	1	1	1	1	1	1	1	1	1	1	1	1	0.993282	0.974496	0.751104	0.554843	0.558431	0.730673	0.941876	0.995777	1	1	1	1	1	1	1	1	1	1	1	1	1	1	1	1	1	1	1	1	1	1	1	1	1	1	1	1	1	0.908949	0.702705	0.53078	0.5178	0.674633	0.887985	1	1	0.930984	0.720487	0.535436	0.516754	0.676432	0.892282	1	1	1	1	1	1	1	1	1	1	1	1	1	1	1	1	1	1	1	1	1	1	1	1	1	1	1	1	1	1	1	1	1	1	1	1	0.848307	0.656272	0.605488	0.54331	0.528268	0.545536	0.461209	0.392468	0.424978	0.537376	0.389711	0.523788	0.634942	0.657275	0.599553	0.612222	0.644243	0.728471	0.837383	0.940585	1	1	1	1	1	1	1	1	1	1	1	1	1	0.991064	0.839426	0.626914	0.505935	0.651315	0.85605	0.999127	1	1	1	1	1	1	1	1	1	1	1	1	1	1	1	1	1	1	1	1	1	1	1	1	1	1	1	1	1	1	0.946769	0.753902	0.559232	0.504095	0.62957	0.846073	1	1	0.954979	0.752486	0.553649	0.506759	0.643986	0.862062	1	1	1	1	1	1	1	1	1	1	1	1	1	1	1	1	1	1	1	1	1	1	1	1	1	1	1	1	1	1	1	1	1	1	1	0.83863	0.652332	0.514251	0.605356	0.71202	0.750829	0.823324	0.548026	0.380789	0.335402	0.389711	0.387378	0.473579	0.612718	0.690315	0.601675	0.578531	0.575748	0.593197	0.61633	0.661844	0.771962	0.889568	0.987194	1	1	1	1	1	1	1	1	1	0.977885	0.920425	0.697378	0.52404	0.590215	0.773673	0.976844	1	1	1	1	1	1	1	1	1	1	1	1	1	1	1	1	1	1	1	1	1	1	1	1	1	1	1	1	1	1	1	0.972093	0.834424	0.588808	0.500024	0.594401	0.804959	0.982909	1	0.980394	0.791307	0.580834	0.500549	0.605825	0.818549	0.986273	1	1	1	1	1	1	1	1	1	1	1	1	1	1	1	1	1	1	1	1	1	1	1	1	1	1	1	1	1	1	1	1	0.997403	0.828001	0.645917	0.513611	0.574348	0.734831	0.895003	0.925825	0.884657	0.687822	0.46157	0.366552	0.387378	0.466565	0.562041	0.696706	0.813826	0.770614	0.684964	0.640999	0.603683	0.582413	0.582937	0.611103	0.641489	0.726892	0.862095	0.970789	1	1	1	1	1	1	0.98173	0.962302	0.771008	0.578853	0.527715	0.690465	0.900634	1	1	1	1	1	1	1	1	1	1	1	1	1	1	1	1	1	1	1	1	1	1	1	1	1	1	1	1	1	1	1	1	1	0.991865	0.804974	0.679631	0.718148	0.875799	1	1	1	0.83284	0.617641	0.502179	0.566606	0.763738	0.95249	1	1	1	1	1	1	1	1	1	1	1	1	1	1	1	1	1	1	1	1	1	1	1	1	1	1	1	